date Sun 21 Jan 15:57:36 GMT 2018
hostname nhpc16
system Linux nhpc16 4.4.74-18.20-default #1 SMP Fri Jun 30 19:01:19 UTC 2017 (b5079b8) x86_64 x86_64 x86_64 GNU/Linux
user andy
executable in /prog/x86_64/crystal/CRYSTAL14/alessandro_1.0.3_mod/bin/Linux-gfortran/intel___gfortran__4.8.5
temporary directory /local/tmp/andy/water_opt_molecule_23391
output in /local/andy/water_opt_molecule_tutorial_21_1_2018/water_opt_molecule.out
input data /local/andy/water_opt_molecule_tutorial_21_1_2018/water_opt_molecule.d12
Water
MOLECULE
15
2
8	0.000000000	0.000000000	0.369372944
1	-0.783975899	0.000000000	-0.184686472
FREQCALC
PREOPTGEOM
ENDOPTGEOM
NUMDERIV
2
TEMPERAT
15 50 750
ENDFREQ
END
8 5          ! O
0 0 8 2.0 1.0
 8020.0 0.00108
 1338.0 0.00804
 255.4 0.05324
 69.22 0.1681
 23.90 0.3581
 9.264 0.3855
 3.851 0.1468
 1.212 0.0728
0 1 4 6.0 1.0
 49.43 -0.00883 0.00958
 10.47 -0.0915 0.0696
 3.235 -0.0402 0.2065
 1.217 0.379 0.347
0 1 1 0.0 1.0
 0.500 1.0 1.0
0 1 1 0.0 1.0
 0.191 1.0 1.0
0 3 1 0.0 1.0
 0.500 1.0
1 4          ! H
0 0 3 1.0 1.0 
34.061341000 0.00602519780
5.1235746000 0.04502109400
1.1646626000 0.20189726000
0 0 1 0.0 1.0 
0.4157455100 1.00000000000
0 0 1 0.0 1.0 
0.1795111000 1.00000000000
0 2 1 0.0 1.0 
0.8000000000 1.00000000000
99 0
END
DFT
CORRELAT
PBE
EXCHANGE
PBE
XLGRID
END
TOLINTEG
10 10 10 10 20
LEVSHIFT
6 1
MAXCYCLE
100
FMIXING
50
TOLDEE
14
END
external geometry input found in /local/andy/water_opt_molecule_tutorial_21_1_2018/water_opt_molecule.gui

         
 *******************************************************************************
 *                                                                             *
 *                               CRYSTAL14                                     *
 *                      public : 1.0.3 - Sep 1st, 2014                         *
 *                       HTTP://WWW.CRYSTAL.UNITO.IT                           *
 *                                                                             *
 *                              MAIN AUTHORS                                   *
 *                                                                             *
 *  R. DOVESI(1,11), V.R. SAUNDERS(2), C. ROETTI(1,11), R. ORLANDO(1,11),      *
 *  C.M. ZICOVICH-WILSON(1,3), F. PASCALE(4), B. CIVALLERI(1,11),              *
 *  K. DOLL(5), N.M. HARRISON(2,6), I. J. BUSH(7), Ph. D'ARCO(8),              *
 *  M. LLUNELL(9), M. CAUSA'(10), Y. NOEL(8)                                   *
 *                                                                             *
 *        CONTRIBUTIONS TO THE CURRENT RELEASE HAVE BEEN GIVEN BY              *
 *                                                                             *
 *  L. MASCHIO(1,11), S. CASASSA(1,11), A. ERBA(1,11), M. FERRABONE(1,11),     *
 *  M. DE LA PIERRE(1,11), M. FERRERO(1,11), V. LACIVITA(1,11),                *
 *  J. BAIMA(1,11), E. ALBANESE(1,11), M.F. PEINTINGER(12), R. BAST(13),       *
 *  M. RERAT(14), B. KIRTMAN(15), R. DEMICHELIS(1,16)                          *
 *                                                                             *
 * (1) THEORETICAL CHEMISTRY GROUP - UNIVERSITA' DI TORINO - TORINO (ITALY)    *
 *     http://www.crystal.unito.it                                             *
 * (2) COMPUTATIONAL SCIENCE & ENGINEERING DEPARTMENT - STFC DARESBURY (UK)    *
 *     http://www.stfc.ac.uk/CSE/randd/cmg/CRYSTAL/25806.aspx                  *
 * (3) UNIVERSIDAD AUTONOMA DEL ESTADO DE MORELOS - CUERNAVACA (MEXICO)        *
 * (4) UNIVERSITE' DE LORRAINE - NANCY (FRANCE)                                *
 * (5) UNIVERSITAET ULM - ULM (GERMANY); (6) IMPERIAL COLLEGE - LONDON (UK)    *
 * (7) NAG - OXFORD (UK); (8) UPMC - SORBONNE UNIVERSITES - PARIS (FRANCE)     *
 * (9) UNIVERSIDAD DE BARCELONA - BARCELONA (SPAIN)                            *
 *(10) UNIVERSITA' DI NAPOLI "FEDERICO II" - NAPOLI (ITALY)                    *
 *(11) NIS - NANOSTRUCTURED INTERFACES AND SURFACES - TORINO (ITALY)           *
 *(12) MPI FUER CHEMISCHE ENERGIEKONVERSION - MUELHEIM AN DER RUHR (GERMANY)   *
 *(13) UNIVERSITY OF STOCKHOLM - STOCKHOLM (SWEDEN)                            *
 *(14) UNIVERSITE' DE PAU ET DES PAYS DE L'ADOUR - PAU (FRANCE)                *
 *(15) UNIVERSITY OF CALIFORNIA SANTA BARBARA - SANTA BARBARA (USA)            *
 *(16) CURTIN UNIVERSITY - PERTH (AUSTRALIA)                                   *
 *                                                                             *
 ********************************************************************************
 EEEEEEEEEE STARTING  DATE 21 01 2018 TIME 15:57:36.6
 Water                                                                           

 MOLECULAR CALCULATION
 POINT  GROUP  N. 15                  :  MM2    OR  C2V  
 CORRESPONDING SPACE GROUP            :  P M M 2         


 NUMBER OF IRREDUCIBLE ATOMS IN THE CONVENTIONAL CELL:    2

 INPUT COORDINATES

 ATOM AT. N.              COORDINATES
   1   8     0.000000000000E+00  0.000000000000E+00  3.693729440000E-01
   2   1    -7.839758990000E-01  0.000000000000E+00 -1.846864720000E-01

 COORDINATES OF THE EQUIVALENT ATOMS (ANGSTROMS)

 N. ATOM EQUIV AT. N.          X                  Y                  Z

   1   1   1    8 O     0.00000000000E+00  0.00000000000E+00  3.69372944000E-01

   2   2   1    1 H    -7.83975899000E-01  0.00000000000E+00 -1.84686472000E-01
   3   2   2    1 H     7.83975899000E-01  0.00000000000E+00 -1.84686472000E-01

 NUMBER OF SYMMETRY OPERATORS         :    4
 *******************************************************************************
 * GEOMETRY EDITING - INPUT COORDINATES ARE GIVEN IN ANGSTROM         
 *******************************************************************************

 GEOMETRY NOW FULLY CONSISTENT WITH THE GROUP

 FRQFRQFRQFRQFRQFRQFRQFRQFRQFRQFRQFRQFRQFRQFRQFRQFRQFRQFRQFRQFRQFRQFRQFRQFRQFRQ

                       FREQUENCY CALCULATION

 OPTIMIZATION PERFORMED BEFORE FREQUENCIES CALCULATION
 *******************************************************************************
 INFORMATION **** NEW DEFAULT **** FINALRUN 4 FOR GEOMETRY OPTIMIZATIONS
 INFORMATION **** NEW DEFAULT **** OPTGEOM OPTIMIZES BOTH ATOMIC COORDINATES AND CELL PARAMETERS
 INFORMATION **** NEW DEFAULT **** TOL. ON ENERGY TO REDEFINE REF. GEOMETRY: 10**-3

 IMPORTANT INFORMATION:
 THE COORDINATE SYSTEM ADOPTED IN THE OPTIMIZATION IS NOT IN
 GENERAL HOMOGENEOUS UNITS. FOR THIS REASON THE GRADIENT AND 
 HESSIAN MATRIX IN TERMS OF THIS SYSTEM ARE GIVEN WITHOUT
 UNITS. FOR MORE DETAILS SEE THE MANUAL.

 *******************************************************************************
 ATOMIC POSITIONS OPTIMIZATION CONTROL

 INITIAL TRUST RADIUS         0.50000 MAXIMUM TRUST RADIUS               0.50000
 MAXIMUM GRADIENT COMPONENT   0.00005 MAXIMUM DISPLACEMENT COMPONENT     0.00018
 R.M.S. OF GRADIENT COMPONENT 0.00003 R.M.S. OF DISPLACEMENT COMPONENTS  0.00012
 THRESHOLD ON ENERGY CHANGE 0.100E-06 EXTRAPOLATING POLYNOMIAL ORDER           2
 MAXIMUM ALLOWED NUMBER OF STEPS  100 SORTING OF ENERGY POINTS:               NO
 ANALYTICAL  GRADIENT                 HESSIAN UPDATING                      BFGS
 STEP SIZE NUMERICAL GRADIENT 0.00100
 INITIAL HESSIAN MATRIX: SCHLEGEL MODEL 2
 *******************************************************************************

 INFORMATION **** INPFREQ **** NUMERICAL DERIVATIVE OF GRADIENT OPTION           2
 TEMPERATURE FOR THERMO ANALYSIS   50.00 KELVIN -  750.00 KELVIN (POINTS 15)
 INFORMATION **** INPFREQ **** NEW DEFAULT -                     IMPOSING ECKART CONDITIONS TO THE HESSIAN

 GEOMETRY FOR WAVE FUNCTION - DIMENSIONALITY OF THE SYSTEM    0
 (NON PERIODIC DIRECTION: LATTICE PARAMETER FORMALLY SET TO 500)
 *******************************************************************************
 ATOMS IN THE ASYMMETRIC UNIT    2 - ATOMS IN THE UNIT CELL:    3
     ATOM          X(ANGSTROM)         Y(ANGSTROM)         Z(ANGSTROM)
 *******************************************************************************
   1 T   8 O     0.000000000000E+00  0.000000000000E+00  3.693729440000E-01
   2 T   1 H    -7.839758990000E-01  0.000000000000E+00 -1.846864720000E-01
   3 F   1 H     7.839758990000E-01  0.000000000000E+00 -1.846864720000E-01

 T = ATOM BELONGING TO THE ASYMMETRIC UNIT

 ****    4 SYMMOPS - TRANSLATORS IN FRACTIONAL UNITS
 **** MATRICES AND TRANSLATORS IN THE CRYSTALLOGRAPHIC REFERENCE FRAME
   V INV                    ROTATION MATRICES                   TRANSLATORS
   1   1  1.00  0.00  0.00  0.00  1.00  0.00  0.00  0.00  1.00  0.00  0.00  0.00
   2   2 -1.00  0.00  0.00  0.00 -1.00  0.00  0.00  0.00  1.00  0.00  0.00  0.00
   3   3 -1.00  0.00  0.00  0.00  1.00  0.00  0.00  0.00  1.00  0.00  0.00  0.00
   4   4  1.00  0.00  0.00  0.00 -1.00  0.00  0.00  0.00  1.00  0.00  0.00  0.00

 *******************************************************************************
 LOCAL ATOMIC FUNCTIONS BASIS SET
 *******************************************************************************
   ATOM   X(AU)   Y(AU)   Z(AU)  N. TYPE  EXPONENT  S COEF   P COEF   D/F/G COEF
 *******************************************************************************
   1 O    0.000   0.000   0.698
                                  1 S  
                                         8.020E+03 1.080E-03 0.000E+00 0.000E+00
                                         1.338E+03 8.040E-03 0.000E+00 0.000E+00
                                         2.554E+02 5.324E-02 0.000E+00 0.000E+00
                                         6.922E+01 1.681E-01 0.000E+00 0.000E+00
                                         2.390E+01 3.581E-01 0.000E+00 0.000E+00
                                         9.264E+00 3.855E-01 0.000E+00 0.000E+00
                                         3.851E+00 1.468E-01 0.000E+00 0.000E+00
                                         1.212E+00 7.280E-02 0.000E+00 0.000E+00
                             2-   5 SP 
                                         4.943E+01-8.830E-03 9.580E-03 0.000E+00
                                         1.047E+01-9.150E-02 6.960E-02 0.000E+00
                                         3.235E+00-4.020E-02 2.065E-01 0.000E+00
                                         1.217E+00 3.790E-01 3.470E-01 0.000E+00
                             6-   9 SP 
                                         5.000E-01 1.000E+00 1.000E+00 0.000E+00
                            10-  13 SP 
                                         1.910E-01 1.000E+00 1.000E+00 0.000E+00
                            14-  18 D  
                                         5.000E-01 0.000E+00 0.000E+00 1.000E+00
   2 H   -1.481   0.000  -0.349
                                 19 S  
                                         3.406E+01 6.025E-03 0.000E+00 0.000E+00
                                         5.124E+00 4.502E-02 0.000E+00 0.000E+00
                                         1.165E+00 2.019E-01 0.000E+00 0.000E+00
                                 20 S  
                                         4.157E-01 1.000E+00 0.000E+00 0.000E+00
                                 21 S  
                                         1.795E-01 1.000E+00 0.000E+00 0.000E+00
                            22-  24 P  
                                         8.000E-01 0.000E+00 1.000E+00 0.000E+00
   3 H    1.481   0.000  -0.349
 INFORMATION **** SET_MPP **** PCRYSTAL CALCULATION
 INFORMATION **** READM2 **** NEW DEFAULT: FOCK/KS MATRIX MIXING SET TO 30 %
 INFORMATION **** READM2 **** NEW DEFAULT: FULL DIRECT SCF MODE
 INFORMATION **** READM2 **** NEW DEFAULT: COULOMB BIPOLAR BUFFER SET TO 32 Mb
 INFORMATION **** READM2 **** NEW DEFAULT: EXCHANGE BIPOLAR BUFFER SET TO 32 Mb

 *******************************************************************************
 NEW DEFAULT: DFT INTEGRATION GRID INCREASED TO XLGRID
 NEW DEFAULT: LEVEL SHIFTER 6 0
 IF THE SYSTEM IS A METAL USE KEYWORD NOSHIFT
 *******************************************************************************

 INFORMATION **** TOLINTEG **** COULOMB AND EXCHANGE SERIES TOLERANCES MODIFIED
 INFORMATION **** LEVSHIFT **** LEVEL SHIFTER ACTIVE
 INFORMATION **** MAXCYCLE **** MAX NUMBER OF SCF CYCLES SET TO         100
 INFORMATION **** TOLDEE **** SCF TOL ON TOTAL ENERGY SET TO          14
 *******************************************************************************
 N. OF ATOMS PER CELL         3  COULOMB OVERLAP TOL         (T1) 10**  -10
 NUMBER OF SHELLS            13  COULOMB PENETRATION TOL     (T2) 10**  -10
 NUMBER OF AO                30  EXCHANGE OVERLAP TOL        (T3) 10**   20
 N. OF ELECTRONS PER CELL    10  EXCHANGE PSEUDO OVP (F(G))  (T4) 10**   20
 CORE ELECTRONS PER CELL      2  EXCHANGE PSEUDO OVP (P(G))  (T5) 10**   20
 N. OF SYMMETRY OPERATORS     4  POLE ORDER IN MONO ZONE                  4
 *******************************************************************************
 TYPE OF CALCULATION :  RESTRICTED CLOSED SHELL
 KOHN-SHAM HAMILTONIAN

 (EXCHANGE)[CORRELATION] FUNCTIONAL:(PERDEW-BURKE-ERNZERHOF)[PERDEW-BURKE-ERNZERHOF]

 EIGENVALUE LEVEL SHIFTING OF  0.600 HARTREE
 LOCKING - FERMI ENERGY ALTERED BY LEVEL SHIFTER

 CAPPA:IS1  1;IS2  1;IS3  1; K PTS MONK NET   1; SYMMOPS:K SPACE   8;G SPACE   4

 *******************************************************************************
 MAX NUMBER OF SCF CYCLES     100  CONVERGENCE ON DELTAP        10**-24
 WEIGHT OF F(I) IN F(I+1)      50% CONVERGENCE ON ENERGY        10**-14
 EIGENVALUE LEVEL SHIFTING OF  0.600 HARTREE
 LOCKING - FERMI ENERGY ALTERED BY LEVEL SHIFTER

 DISK SPACE FOR EIGENVECTORS (FTN 10)         900 REALS

 SYMMETRY ADAPTION OF THE BLOCH FUNCTIONS ENABLED

 MATRIX SIZE: P(G)     900, F(G)     465, P(G) IRR     355, F(G) IRR     355
 MAX G-VECTOR INDEX FOR 1- AND 2-ELECTRON INTEGRALS   1

 TTTTTTTTTTTTTTTTTTTTTTTTTTTTTT INPUT       TELAPSE        0.00 TCPU        0.00

 NEIGHBORS OF THE NON-EQUIVALENT ATOMS

 N = NUMBER OF NEIGHBORS AT DISTANCE R
    ATOM  N     R/ANG      R/AU   NEIGHBORS (ATOM LABELS AND CELL INDICES)
   1 O    2     0.9600     1.8141    2 H    0 0 0    3 H    0 0 0

   2 H    1     0.9600     1.8141    1 O    0 0 0
   2 H    1     1.5680     2.9630    3 H    0 0 0


 SYMMETRY ALLOWED INTERNAL DEGREE(S) OF FREEDOM:   2
 TTTTTTTTTTTTTTTTTTTTTTTTTTTTTT SYMM        TELAPSE        0.00 TCPU        0.00
 TTTTTTTTTTTTTTTTTTTTTTTTTTTTTT INT_SCREEN  TELAPSE        0.00 TCPU        0.00
 *******************************************************************************
 COORDINATE OPTIMIZATION - POINT    1
 INFORMATION **** EXCBUF **** EXCH. BIPO BUFFER: WORDS USED =           0

 DFT PARAMETERS

     ATOM       ELECTRONS   NET CHARGE   R(ANGSTROM)
   1   8  O       8.0000      0.0000     0.74000000
   2   1  H       1.0000      0.0000     1.11000000

 SIZE OF GRID=      27913
 TTTTTTTTTTTTTTTTTTTTTTTTTTTTTT MAKE_GRID2  TELAPSE        0.02 TCPU        0.02
 BECKE WEIGHT FUNCTION
 RADSAFE =     2.00
 TOLERANCES - DENSITY:10**- 6; POTENTIAL:10**- 9; GRID WGT:10**-14

 RADIAL INTEGRATION  - INTERVALS (POINTS,UPPER LIMIT):            1( 75,  4.0*R)

 ANGULAR INTEGRATION - INTERVALS (ACCURACY LEVEL [N. POINTS] UPPER LIMIT):
  1(  4[  86]   0.2)  2(  8[ 194]   0.5)  3( 12[ 350]   0.9)  4( 16[ 974]   3.5)
  5( 12[ 350]9999.0)
 TTTTTTTTTTTTTTTTTTTTTTTTTTTTTT INT_CALC    TELAPSE        0.02 TCPU        0.02

 *******************************************************************************
 Water                                                                           
 CRYSTAL - SCF - TYPE OF CALCULATION :  RESTRICTED CLOSED SHELL
 *******************************************************************************

 CAPPA:IS1  1;IS2  1;IS3  1; K PTS MONK NET   1; SYMMOPS:K SPACE   8;G SPACE   4

 TTTTTTTTTTTTTTTTTTTTTTTTTTTTTT SDIK        TELAPSE        0.02 TCPU        0.02

 AAAAAAAAAAAAAAAAAAAAAAAAAAAAAAAAAAAAAAAAAAAAAAAAAAAAAAAAAAAAAAAAAAAAAAAAAAAAAAA
         ATOMIC WAVEFUNCTION(S)


 NUCLEAR CHARGE  8.0  SYMMETRY SPECIES            S    P
 N. ELECTRONS    8.0  NUMBER OF PRIMITIVE GTOS   14    6
                      NUMBER OF CONTRACTED GTOS   4    3
                      NUMBER OF CLOSED SHELLS     2    0
                      OPEN SHELL OCCUPATION       0    4

  ZNUC SCFIT  TOTAL HF ENERGY   KINETIC ENERGY   VIRIAL THEOREM ACCURACY
   8.0  13   -7.480076780E+01  7.462318851E+01 -2.002379680E+00  2.9E-06

 NUCLEAR CHARGE  1.0  SYMMETRY SPECIES            S
 N. ELECTRONS    1.0  NUMBER OF PRIMITIVE GTOS    5
                      NUMBER OF CONTRACTED GTOS   3
                      NUMBER OF CLOSED SHELLS     0
                      OPEN SHELL OCCUPATION       1

  ZNUC SCFIT  TOTAL HF ENERGY   KINETIC ENERGY   VIRIAL THEOREM ACCURACY
   1.0   1   -4.972863497E-01  5.223199932E-01 -1.952072209E+00  9.2E-16

 AAAAAAAAAAAAAAAAAAAAAAAAAAAAAAAAAAAAAAAAAAAAAAAAAAAAAAAAAAAAAAAAAAAAAAAAAAAAAAA

 TTTTTTTTTTTTTTTTTTTTTTTTTTTTTT MOQGAD      TELAPSE        0.02 TCPU        0.02
 TTTTTTTTTTTTTTTTTTTTTTTTTTTTTT SHELLX2     TELAPSE        0.03 TCPU        0.03
 TTTTTTTTTTTTTTTTTTTTTTTTTTTTTT MONMO3      TELAPSE        0.03 TCPU        0.04
 NUMERICALLY INTEGRATED DENSITY      9.9999875512
 TTTTTTTTTTTTTTTTTTTTTTTTTTTTTT NUMDFT      TELAPSE        0.10 TCPU        0.09
 CYC   0 ETOT(AU) -7.636619679580E+01 DETOT -7.64E+01 tst  0.00E+00 PX  1.00E+00
 TTTTTTTTTTTTTTTTTTTTTTTTTTTTTT FDIK        TELAPSE        0.10 TCPU        0.10
 INSULATING STATE - LEVEL SHIFTER    0.60 au
 TOP OF VALENCE BANDS -    BAND      5; K    1; EIG -3.8439679E-01 AU
 BOTTOM OF VIRTUAL BANDS - BAND      6; K    1; EIG  1.5503916E-02 AU
 TTTTTTTTTTTTTTTTTTTTTTTTTTTTTT PDIG        TELAPSE        0.10 TCPU        0.10
 TTTTTTTTTTTTTTTTTTTTTTTTTTTTTT MOQGAD      TELAPSE        0.10 TCPU        0.10
 TTTTTTTTTTTTTTTTTTTTTTTTTTTTTT SHELLX2     TELAPSE        0.11 TCPU        0.11
 TTTTTTTTTTTTTTTTTTTTTTTTTTTTTT MONMO3      TELAPSE        0.11 TCPU        0.11
 NUMERICALLY INTEGRATED DENSITY      9.9999846765
 TTTTTTTTTTTTTTTTTTTTTTTTTTTTTT NUMDFT      TELAPSE        0.17 TCPU        0.17
 CYC   1 ETOT(AU) -7.628561970744E+01 DETOT  8.06E-02 tst  0.00E+00 PX  1.00E+00
 TTTTTTTTTTTTTTTTTTTTTTTTTTTTTT FDIK        TELAPSE        0.17 TCPU        0.17
 INSULATING STATE - LEVEL SHIFTER    0.60 au
 TOP OF VALENCE BANDS -    BAND      5; K    1; EIG -8.2549923E-01 AU
 BOTTOM OF VIRTUAL BANDS - BAND      6; K    1; EIG  4.9671272E-02 AU
 TTTTTTTTTTTTTTTTTTTTTTTTTTTTTT PDIG        TELAPSE        0.17 TCPU        0.17
 TTTTTTTTTTTTTTTTTTTTTTTTTTTTTT MOQGAD      TELAPSE        0.17 TCPU        0.17
 TTTTTTTTTTTTTTTTTTTTTTTTTTTTTT SHELLX2     TELAPSE        0.18 TCPU        0.18
 TTTTTTTTTTTTTTTTTTTTTTTTTTTTTT MONMO3      TELAPSE        0.18 TCPU        0.18
 NUMERICALLY INTEGRATED DENSITY      9.9999789290
 TTTTTTTTTTTTTTTTTTTTTTTTTTTTTT NUMDFT      TELAPSE        0.25 TCPU        0.24
 CYC   2 ETOT(AU) -7.636103893475E+01 DETOT -7.54E-02 tst  6.59E-03 PX  8.08E-02
 TTTTTTTTTTTTTTTTTTTTTTTTTTTTTT FDIK        TELAPSE        0.25 TCPU        0.24
 INSULATING STATE - LEVEL SHIFTER    0.60 au
 TOP OF VALENCE BANDS -    BAND      5; K    1; EIG -8.2082974E-01 AU
 BOTTOM OF VIRTUAL BANDS - BAND      6; K    1; EIG  5.2680287E-02 AU
 TTTTTTTTTTTTTTTTTTTTTTTTTTTTTT PDIG        TELAPSE        0.25 TCPU        0.24
 TTTTTTTTTTTTTTTTTTTTTTTTTTTTTT MOQGAD      TELAPSE        0.25 TCPU        0.25
 TTTTTTTTTTTTTTTTTTTTTTTTTTTTTT SHELLX2     TELAPSE        0.26 TCPU        0.26
 TTTTTTTTTTTTTTTTTTTTTTTTTTTTTT MONMO3      TELAPSE        0.26 TCPU        0.26
 NUMERICALLY INTEGRATED DENSITY      9.9999754145
 TTTTTTTTTTTTTTTTTTTTTTTTTTTTTT NUMDFT      TELAPSE        0.32 TCPU        0.32
 CYC   3 ETOT(AU) -7.636396540565E+01 DETOT -2.93E-03 tst  1.41E-03 PX  3.98E-02
 TTTTTTTTTTTTTTTTTTTTTTTTTTTTTT FDIK        TELAPSE        0.32 TCPU        0.32
 INSULATING STATE - LEVEL SHIFTER    0.60 au
 TOP OF VALENCE BANDS -    BAND      5; K    1; EIG -8.4506694E-01 AU
 BOTTOM OF VIRTUAL BANDS - BAND      6; K    1; EIG  4.7406946E-02 AU
 TTTTTTTTTTTTTTTTTTTTTTTTTTTTTT PDIG        TELAPSE        0.32 TCPU        0.32
 TTTTTTTTTTTTTTTTTTTTTTTTTTTTTT MOQGAD      TELAPSE        0.32 TCPU        0.32
 TTTTTTTTTTTTTTTTTTTTTTTTTTTTTT SHELLX2     TELAPSE        0.33 TCPU        0.33
 TTTTTTTTTTTTTTTTTTTTTTTTTTTTTT MONMO3      TELAPSE        0.33 TCPU        0.33
 NUMERICALLY INTEGRATED DENSITY      9.9999750789
 TTTTTTTTTTTTTTTTTTTTTTTTTTTTTT NUMDFT      TELAPSE        0.39 TCPU        0.39
 CYC   4 ETOT(AU) -7.636513062196E+01 DETOT -1.17E-03 tst  6.76E-05 PX  1.04E-02
 TTTTTTTTTTTTTTTTTTTTTTTTTTTTTT FDIK        TELAPSE        0.39 TCPU        0.39
 INSULATING STATE - LEVEL SHIFTER    0.60 au
 TOP OF VALENCE BANDS -    BAND      5; K    1; EIG -8.5469321E-01 AU
 BOTTOM OF VIRTUAL BANDS - BAND      6; K    1; EIG  4.5147093E-02 AU
 TTTTTTTTTTTTTTTTTTTTTTTTTTTTTT PDIG        TELAPSE        0.39 TCPU        0.39
 TTTTTTTTTTTTTTTTTTTTTTTTTTTTTT MOQGAD      TELAPSE        0.39 TCPU        0.39
 TTTTTTTTTTTTTTTTTTTTTTTTTTTTTT SHELLX2     TELAPSE        0.40 TCPU        0.40
 TTTTTTTTTTTTTTTTTTTTTTTTTTTTTT MONMO3      TELAPSE        0.40 TCPU        0.40
 NUMERICALLY INTEGRATED DENSITY      9.9999755918
 TTTTTTTTTTTTTTTTTTTTTTTTTTTTTT NUMDFT      TELAPSE        0.47 TCPU        0.47
 CYC   5 ETOT(AU) -7.636570093549E+01 DETOT -5.70E-04 tst  3.22E-05 PX  8.98E-03
 TTTTTTTTTTTTTTTTTTTTTTTTTTTTTT FDIK        TELAPSE        0.47 TCPU        0.47
 INSULATING STATE - LEVEL SHIFTER    0.60 au
 TOP OF VALENCE BANDS -    BAND      5; K    1; EIG -8.5352859E-01 AU
 BOTTOM OF VIRTUAL BANDS - BAND      6; K    1; EIG  4.5447106E-02 AU
 TTTTTTTTTTTTTTTTTTTTTTTTTTTTTT PDIG        TELAPSE        0.47 TCPU        0.47
 TTTTTTTTTTTTTTTTTTTTTTTTTTTTTT MOQGAD      TELAPSE        0.47 TCPU        0.47
 TTTTTTTTTTTTTTTTTTTTTTTTTTTTTT SHELLX2     TELAPSE        0.48 TCPU        0.48
 TTTTTTTTTTTTTTTTTTTTTTTTTTTTTT MONMO3      TELAPSE        0.48 TCPU        0.48
 NUMERICALLY INTEGRATED DENSITY      9.9999758515
 TTTTTTTTTTTTTTTTTTTTTTTTTTTTTT NUMDFT      TELAPSE        0.54 TCPU        0.54
 CYC   6 ETOT(AU) -7.636570370126E+01 DETOT -2.77E-06 tst  3.82E-06 PX  2.64E-03
 TTTTTTTTTTTTTTTTTTTTTTTTTTTTTT FDIK        TELAPSE        0.54 TCPU        0.54
 INSULATING STATE - LEVEL SHIFTER    0.60 au
 TOP OF VALENCE BANDS -    BAND      5; K    1; EIG -8.5121127E-01 AU
 BOTTOM OF VIRTUAL BANDS - BAND      6; K    1; EIG  4.6008637E-02 AU
 TTTTTTTTTTTTTTTTTTTTTTTTTTTTTT PDIG        TELAPSE        0.54 TCPU        0.54
 TTTTTTTTTTTTTTTTTTTTTTTTTTTTTT MOQGAD      TELAPSE        0.54 TCPU        0.54
 TTTTTTTTTTTTTTTTTTTTTTTTTTTTTT SHELLX2     TELAPSE        0.55 TCPU        0.55
 TTTTTTTTTTTTTTTTTTTTTTTTTTTTTT MONMO3      TELAPSE        0.55 TCPU        0.55
 NUMERICALLY INTEGRATED DENSITY      9.9999758703
 TTTTTTTTTTTTTTTTTTTTTTTTTTTTTT NUMDFT      TELAPSE        0.62 TCPU        0.62
 CYC   7 ETOT(AU) -7.636571388778E+01 DETOT -1.02E-05 tst  1.90E-06 PX  1.66E-03
 TTTTTTTTTTTTTTTTTTTTTTTTTTTTTT FDIK        TELAPSE        0.62 TCPU        0.62
 INSULATING STATE - LEVEL SHIFTER    0.60 au
 TOP OF VALENCE BANDS -    BAND      5; K    1; EIG -8.5056177E-01 AU
 BOTTOM OF VIRTUAL BANDS - BAND      6; K    1; EIG  4.6160011E-02 AU
 TTTTTTTTTTTTTTTTTTTTTTTTTTTTTT PDIG        TELAPSE        0.62 TCPU        0.62
 TTTTTTTTTTTTTTTTTTTTTTTTTTTTTT MOQGAD      TELAPSE        0.62 TCPU        0.62
 TTTTTTTTTTTTTTTTTTTTTTTTTTTTTT SHELLX2     TELAPSE        0.63 TCPU        0.63
 TTTTTTTTTTTTTTTTTTTTTTTTTTTTTT MONMO3      TELAPSE        0.63 TCPU        0.63
 NUMERICALLY INTEGRATED DENSITY      9.9999758428
 TTTTTTTTTTTTTTTTTTTTTTTTTTTTTT NUMDFT      TELAPSE        0.69 TCPU        0.69
 CYC   8 ETOT(AU) -7.636571706789E+01 DETOT -3.18E-06 tst  1.04E-06 PX  1.29E-03
 TTTTTTTTTTTTTTTTTTTTTTTTTTTTTT FDIK        TELAPSE        0.69 TCPU        0.69
 INSULATING STATE - LEVEL SHIFTER    0.60 au
 TOP OF VALENCE BANDS -    BAND      5; K    1; EIG -8.5075719E-01 AU
 BOTTOM OF VIRTUAL BANDS - BAND      6; K    1; EIG  4.6100402E-02 AU
 TTTTTTTTTTTTTTTTTTTTTTTTTTTTTT PDIG        TELAPSE        0.69 TCPU        0.69
 TTTTTTTTTTTTTTTTTTTTTTTTTTTTTT MOQGAD      TELAPSE        0.69 TCPU        0.69
 TTTTTTTTTTTTTTTTTTTTTTTTTTTTTT SHELLX2     TELAPSE        0.70 TCPU        0.70
 TTTTTTTTTTTTTTTTTTTTTTTTTTTTTT MONMO3      TELAPSE        0.70 TCPU        0.70
 NUMERICALLY INTEGRATED DENSITY      9.9999758382
 TTTTTTTTTTTTTTTTTTTTTTTTTTTTTT NUMDFT      TELAPSE        0.77 TCPU        0.77
 CYC   9 ETOT(AU) -7.636571730329E+01 DETOT -2.35E-07 tst  2.87E-07 PX  6.12E-04
 TTTTTTTTTTTTTTTTTTTTTTTTTTTTTT FDIK        TELAPSE        0.77 TCPU        0.77
 INSULATING STATE - LEVEL SHIFTER    0.60 au
 TOP OF VALENCE BANDS -    BAND      5; K    1; EIG -8.5095972E-01 AU
 BOTTOM OF VIRTUAL BANDS - BAND      6; K    1; EIG  4.6038186E-02 AU
 TTTTTTTTTTTTTTTTTTTTTTTTTTTTTT PDIG        TELAPSE        0.77 TCPU        0.77
 TTTTTTTTTTTTTTTTTTTTTTTTTTTTTT MOQGAD      TELAPSE        0.77 TCPU        0.77
 TTTTTTTTTTTTTTTTTTTTTTTTTTTTTT SHELLX2     TELAPSE        0.78 TCPU        0.78
 TTTTTTTTTTTTTTTTTTTTTTTTTTTTTT MONMO3      TELAPSE        0.78 TCPU        0.78
 NUMERICALLY INTEGRATED DENSITY      9.9999758473
 TTTTTTTTTTTTTTTTTTTTTTTTTTTTTT NUMDFT      TELAPSE        0.84 TCPU        0.84
 CYC  10 ETOT(AU) -7.636571750365E+01 DETOT -2.00E-07 tst  6.24E-08 PX  2.59E-04
 TTTTTTTTTTTTTTTTTTTTTTTTTTTTTT FDIK        TELAPSE        0.84 TCPU        0.84
 INSULATING STATE - LEVEL SHIFTER    0.60 au
 TOP OF VALENCE BANDS -    BAND      5; K    1; EIG -8.5100717E-01 AU
 BOTTOM OF VIRTUAL BANDS - BAND      6; K    1; EIG  4.6016861E-02 AU
 TTTTTTTTTTTTTTTTTTTTTTTTTTTTTT PDIG        TELAPSE        0.84 TCPU        0.84
 TTTTTTTTTTTTTTTTTTTTTTTTTTTTTT MOQGAD      TELAPSE        0.84 TCPU        0.84
 TTTTTTTTTTTTTTTTTTTTTTTTTTTTTT SHELLX2     TELAPSE        0.85 TCPU        0.85
 TTTTTTTTTTTTTTTTTTTTTTTTTTTTTT MONMO3      TELAPSE        0.85 TCPU        0.85
 NUMERICALLY INTEGRATED DENSITY      9.9999758549
 TTTTTTTTTTTTTTTTTTTTTTTTTTTTTT NUMDFT      TELAPSE        0.92 TCPU        0.92
 CYC  11 ETOT(AU) -7.636571754933E+01 DETOT -4.57E-08 tst  1.74E-08 PX  1.41E-04
 TTTTTTTTTTTTTTTTTTTTTTTTTTTTTT FDIK        TELAPSE        0.92 TCPU        0.92
 INSULATING STATE - LEVEL SHIFTER    0.60 au
 TOP OF VALENCE BANDS -    BAND      5; K    1; EIG -8.5099358E-01 AU
 BOTTOM OF VIRTUAL BANDS - BAND      6; K    1; EIG  4.6014221E-02 AU
 TTTTTTTTTTTTTTTTTTTTTTTTTTTTTT PDIG        TELAPSE        0.92 TCPU        0.92
 TTTTTTTTTTTTTTTTTTTTTTTTTTTTTT MOQGAD      TELAPSE        0.92 TCPU        0.92
 TTTTTTTTTTTTTTTTTTTTTTTTTTTTTT SHELLX2     TELAPSE        0.93 TCPU        0.93
 TTTTTTTTTTTTTTTTTTTTTTTTTTTTTT MONMO3      TELAPSE        0.93 TCPU        0.93
 NUMERICALLY INTEGRATED DENSITY      9.9999758581
 TTTTTTTTTTTTTTTTTTTTTTTTTTTTTT NUMDFT      TELAPSE        0.99 TCPU        0.99
 CYC  12 ETOT(AU) -7.636571755917E+01 DETOT -9.84E-09 tst  6.87E-09 PX  9.39E-05
 TTTTTTTTTTTTTTTTTTTTTTTTTTTTTT FDIK        TELAPSE        0.99 TCPU        0.99
 INSULATING STATE - LEVEL SHIFTER    0.60 au
 TOP OF VALENCE BANDS -    BAND      5; K    1; EIG -8.5098383E-01 AU
 BOTTOM OF VIRTUAL BANDS - BAND      6; K    1; EIG  4.6013324E-02 AU
 TTTTTTTTTTTTTTTTTTTTTTTTTTTTTT PDIG        TELAPSE        0.99 TCPU        0.99
 TTTTTTTTTTTTTTTTTTTTTTTTTTTTTT MOQGAD      TELAPSE        0.99 TCPU        0.99
 TTTTTTTTTTTTTTTTTTTTTTTTTTTTTT SHELLX2     TELAPSE        1.00 TCPU        1.00
 TTTTTTTTTTTTTTTTTTTTTTTTTTTTTT MONMO3      TELAPSE        1.00 TCPU        1.00
 NUMERICALLY INTEGRATED DENSITY      9.9999758591
 TTTTTTTTTTTTTTTTTTTTTTTTTTTTTT NUMDFT      TELAPSE        1.07 TCPU        1.06
 CYC  13 ETOT(AU) -7.636571756310E+01 DETOT -3.93E-09 tst  2.76E-09 PX  6.30E-05
 TTTTTTTTTTTTTTTTTTTTTTTTTTTTTT FDIK        TELAPSE        1.07 TCPU        1.06
 INSULATING STATE - LEVEL SHIFTER    0.60 au
 TOP OF VALENCE BANDS -    BAND      5; K    1; EIG -8.5098521E-01 AU
 BOTTOM OF VIRTUAL BANDS - BAND      6; K    1; EIG  4.6011219E-02 AU
 TTTTTTTTTTTTTTTTTTTTTTTTTTTTTT PDIG        TELAPSE        1.07 TCPU        1.06
 TTTTTTTTTTTTTTTTTTTTTTTTTTTTTT MOQGAD      TELAPSE        1.07 TCPU        1.07
 TTTTTTTTTTTTTTTTTTTTTTTTTTTTTT SHELLX2     TELAPSE        1.08 TCPU        1.07
 TTTTTTTTTTTTTTTTTTTTTTTTTTTTTT MONMO3      TELAPSE        1.08 TCPU        1.08
 NUMERICALLY INTEGRATED DENSITY      9.9999758596
 TTTTTTTTTTTTTTTTTTTTTTTTTTTTTT NUMDFT      TELAPSE        1.14 TCPU        1.14
 CYC  14 ETOT(AU) -7.636571756427E+01 DETOT -1.16E-09 tst  9.47E-10 PX  3.67E-05
 TTTTTTTTTTTTTTTTTTTTTTTTTTTTTT FDIK        TELAPSE        1.14 TCPU        1.14
 INSULATING STATE - LEVEL SHIFTER    0.60 au
 TOP OF VALENCE BANDS -    BAND      5; K    1; EIG -8.5098891E-01 AU
 BOTTOM OF VIRTUAL BANDS - BAND      6; K    1; EIG  4.6009322E-02 AU
 TTTTTTTTTTTTTTTTTTTTTTTTTTTTTT PDIG        TELAPSE        1.14 TCPU        1.14
 TTTTTTTTTTTTTTTTTTTTTTTTTTTTTT MOQGAD      TELAPSE        1.14 TCPU        1.14
 TTTTTTTTTTTTTTTTTTTTTTTTTTTTTT SHELLX2     TELAPSE        1.15 TCPU        1.15
 TTTTTTTTTTTTTTTTTTTTTTTTTTTTTT MONMO3      TELAPSE        1.15 TCPU        1.15
 NUMERICALLY INTEGRATED DENSITY      9.9999758601
 TTTTTTTTTTTTTTTTTTTTTTTTTTTTTT NUMDFT      TELAPSE        1.21 TCPU        1.21
 CYC  15 ETOT(AU) -7.636571756466E+01 DETOT -3.93E-10 tst  2.91E-10 PX  1.95E-05
 TTTTTTTTTTTTTTTTTTTTTTTTTTTTTT FDIK        TELAPSE        1.21 TCPU        1.21
 INSULATING STATE - LEVEL SHIFTER    0.60 au
 TOP OF VALENCE BANDS -    BAND      5; K    1; EIG -8.5099081E-01 AU
 BOTTOM OF VIRTUAL BANDS - BAND      6; K    1; EIG  4.6008286E-02 AU
 TTTTTTTTTTTTTTTTTTTTTTTTTTTTTT PDIG        TELAPSE        1.21 TCPU        1.21
 TTTTTTTTTTTTTTTTTTTTTTTTTTTTTT MOQGAD      TELAPSE        1.21 TCPU        1.21
 TTTTTTTTTTTTTTTTTTTTTTTTTTTTTT SHELLX2     TELAPSE        1.22 TCPU        1.22
 TTTTTTTTTTTTTTTTTTTTTTTTTTTTTT MONMO3      TELAPSE        1.22 TCPU        1.22
 NUMERICALLY INTEGRATED DENSITY      9.9999758604
 TTTTTTTTTTTTTTTTTTTTTTTTTTTTTT NUMDFT      TELAPSE        1.29 TCPU        1.29
 CYC  16 ETOT(AU) -7.636571756479E+01 DETOT -1.35E-10 tst  9.02E-11 PX  1.08E-05
 TTTTTTTTTTTTTTTTTTTTTTTTTTTTTT FDIK        TELAPSE        1.29 TCPU        1.29
 INSULATING STATE - LEVEL SHIFTER    0.60 au
 TOP OF VALENCE BANDS -    BAND      5; K    1; EIG -8.5099127E-01 AU
 BOTTOM OF VIRTUAL BANDS - BAND      6; K    1; EIG  4.6007847E-02 AU
 TTTTTTTTTTTTTTTTTTTTTTTTTTTTTT PDIG        TELAPSE        1.29 TCPU        1.29
 TTTTTTTTTTTTTTTTTTTTTTTTTTTTTT MOQGAD      TELAPSE        1.29 TCPU        1.29
 TTTTTTTTTTTTTTTTTTTTTTTTTTTTTT SHELLX2     TELAPSE        1.30 TCPU        1.30
 TTTTTTTTTTTTTTTTTTTTTTTTTTTTTT MONMO3      TELAPSE        1.30 TCPU        1.30
 NUMERICALLY INTEGRATED DENSITY      9.9999758606
 TTTTTTTTTTTTTTTTTTTTTTTTTTTTTT NUMDFT      TELAPSE        1.36 TCPU        1.36
 CYC  17 ETOT(AU) -7.636571756484E+01 DETOT -4.30E-11 tst  3.00E-11 PX  6.19E-06
 TTTTTTTTTTTTTTTTTTTTTTTTTTTTTT FDIK        TELAPSE        1.36 TCPU        1.36
 INSULATING STATE - LEVEL SHIFTER    0.60 au
 TOP OF VALENCE BANDS -    BAND      5; K    1; EIG -8.5099134E-01 AU
 BOTTOM OF VIRTUAL BANDS - BAND      6; K    1; EIG  4.6007646E-02 AU
 TTTTTTTTTTTTTTTTTTTTTTTTTTTTTT PDIG        TELAPSE        1.36 TCPU        1.36
 TTTTTTTTTTTTTTTTTTTTTTTTTTTTTT MOQGAD      TELAPSE        1.36 TCPU        1.36
 TTTTTTTTTTTTTTTTTTTTTTTTTTTTTT SHELLX2     TELAPSE        1.37 TCPU        1.37
 TTTTTTTTTTTTTTTTTTTTTTTTTTTTTT MONMO3      TELAPSE        1.37 TCPU        1.37
 NUMERICALLY INTEGRATED DENSITY      9.9999758607
 TTTTTTTTTTTTTTTTTTTTTTTTTTTTTT NUMDFT      TELAPSE        1.44 TCPU        1.44
 CYC  18 ETOT(AU) -7.636571756485E+01 DETOT -1.41E-11 tst  1.04E-11 PX  3.77E-06
 TTTTTTTTTTTTTTTTTTTTTTTTTTTTTT FDIK        TELAPSE        1.44 TCPU        1.44
 INSULATING STATE - LEVEL SHIFTER    0.60 au
 TOP OF VALENCE BANDS -    BAND      5; K    1; EIG -8.5099142E-01 AU
 BOTTOM OF VIRTUAL BANDS - BAND      6; K    1; EIG  4.6007521E-02 AU
 TTTTTTTTTTTTTTTTTTTTTTTTTTTTTT PDIG        TELAPSE        1.44 TCPU        1.44
 TTTTTTTTTTTTTTTTTTTTTTTTTTTTTT MOQGAD      TELAPSE        1.44 TCPU        1.44
 TTTTTTTTTTTTTTTTTTTTTTTTTTTTTT SHELLX2     TELAPSE        1.45 TCPU        1.45
 TTTTTTTTTTTTTTTTTTTTTTTTTTTTTT MONMO3      TELAPSE        1.45 TCPU        1.45
 NUMERICALLY INTEGRATED DENSITY      9.9999758607
 TTTTTTTTTTTTTTTTTTTTTTTTTTTTTT NUMDFT      TELAPSE        1.51 TCPU        1.51
 CYC  19 ETOT(AU) -7.636571756486E+01 DETOT -4.68E-12 tst  3.55E-12 PX  2.16E-06
 TTTTTTTTTTTTTTTTTTTTTTTTTTTTTT FDIK        TELAPSE        1.51 TCPU        1.51
 INSULATING STATE - LEVEL SHIFTER    0.60 au
 TOP OF VALENCE BANDS -    BAND      5; K    1; EIG -8.5099152E-01 AU
 BOTTOM OF VIRTUAL BANDS - BAND      6; K    1; EIG  4.6007437E-02 AU
 TTTTTTTTTTTTTTTTTTTTTTTTTTTTTT PDIG        TELAPSE        1.51 TCPU        1.51
 TTTTTTTTTTTTTTTTTTTTTTTTTTTTTT MOQGAD      TELAPSE        1.51 TCPU        1.51
 TTTTTTTTTTTTTTTTTTTTTTTTTTTTTT SHELLX2     TELAPSE        1.52 TCPU        1.52
 TTTTTTTTTTTTTTTTTTTTTTTTTTTTTT MONMO3      TELAPSE        1.52 TCPU        1.52
 NUMERICALLY INTEGRATED DENSITY      9.9999758608
 TTTTTTTTTTTTTTTTTTTTTTTTTTTTTT NUMDFT      TELAPSE        1.59 TCPU        1.59
 CYC  20 ETOT(AU) -7.636571756486E+01 DETOT -1.61E-12 tst  1.17E-12 PX  1.25E-06
 TTTTTTTTTTTTTTTTTTTTTTTTTTTTTT FDIK        TELAPSE        1.59 TCPU        1.59
 INSULATING STATE - LEVEL SHIFTER    0.60 au
 TOP OF VALENCE BANDS -    BAND      5; K    1; EIG -8.5099159E-01 AU
 BOTTOM OF VIRTUAL BANDS - BAND      6; K    1; EIG  4.6007386E-02 AU
 TTTTTTTTTTTTTTTTTTTTTTTTTTTTTT PDIG        TELAPSE        1.59 TCPU        1.59
 TTTTTTTTTTTTTTTTTTTTTTTTTTTTTT MOQGAD      TELAPSE        1.59 TCPU        1.59
 TTTTTTTTTTTTTTTTTTTTTTTTTTTTTT SHELLX2     TELAPSE        1.60 TCPU        1.60
 TTTTTTTTTTTTTTTTTTTTTTTTTTTTTT MONMO3      TELAPSE        1.60 TCPU        1.60
 NUMERICALLY INTEGRATED DENSITY      9.9999758608
 TTTTTTTTTTTTTTTTTTTTTTTTTTTTTT NUMDFT      TELAPSE        1.66 TCPU        1.66
 CYC  21 ETOT(AU) -7.636571756486E+01 DETOT -4.26E-13 tst  3.84E-13 PX  7.20E-07
 TTTTTTTTTTTTTTTTTTTTTTTTTTTTTT FDIK        TELAPSE        1.66 TCPU        1.66
 INSULATING STATE - LEVEL SHIFTER    0.60 au
 TOP OF VALENCE BANDS -    BAND      5; K    1; EIG -8.5099162E-01 AU
 BOTTOM OF VIRTUAL BANDS - BAND      6; K    1; EIG  4.6007359E-02 AU
 TTTTTTTTTTTTTTTTTTTTTTTTTTTTTT PDIG        TELAPSE        1.66 TCPU        1.66
 TTTTTTTTTTTTTTTTTTTTTTTTTTTTTT MOQGAD      TELAPSE        1.66 TCPU        1.66
 TTTTTTTTTTTTTTTTTTTTTTTTTTTTTT SHELLX2     TELAPSE        1.67 TCPU        1.67
 TTTTTTTTTTTTTTTTTTTTTTTTTTTTTT MONMO3      TELAPSE        1.67 TCPU        1.67
 NUMERICALLY INTEGRATED DENSITY      9.9999758608
 TTTTTTTTTTTTTTTTTTTTTTTTTTTTTT NUMDFT      TELAPSE        1.74 TCPU        1.73
 CYC  22 ETOT(AU) -7.636571756486E+01 DETOT -1.85E-13 tst  1.27E-13 PX  4.18E-07
 TTTTTTTTTTTTTTTTTTTTTTTTTTTTTT FDIK        TELAPSE        1.74 TCPU        1.74
 INSULATING STATE - LEVEL SHIFTER    0.60 au
 TOP OF VALENCE BANDS -    BAND      5; K    1; EIG -8.5099163E-01 AU
 BOTTOM OF VIRTUAL BANDS - BAND      6; K    1; EIG  4.6007345E-02 AU
 TTTTTTTTTTTTTTTTTTTTTTTTTTTTTT PDIG        TELAPSE        1.74 TCPU        1.74
 TTTTTTTTTTTTTTTTTTTTTTTTTTTTTT MOQGAD      TELAPSE        1.74 TCPU        1.74
 TTTTTTTTTTTTTTTTTTTTTTTTTTTTTT SHELLX2     TELAPSE        1.75 TCPU        1.75
 TTTTTTTTTTTTTTTTTTTTTTTTTTTTTT MONMO3      TELAPSE        1.75 TCPU        1.75
 NUMERICALLY INTEGRATED DENSITY      9.9999758608
 TTTTTTTTTTTTTTTTTTTTTTTTTTTTTT NUMDFT      TELAPSE        1.81 TCPU        1.81
 CYC  23 ETOT(AU) -7.636571756486E+01 DETOT -7.11E-14 tst  4.25E-14 PX  2.45E-07
 TTTTTTTTTTTTTTTTTTTTTTTTTTTTTT FDIK        TELAPSE        1.81 TCPU        1.81
 INSULATING STATE - LEVEL SHIFTER    0.60 au
 TOP OF VALENCE BANDS -    BAND      5; K    1; EIG -8.5099164E-01 AU
 BOTTOM OF VIRTUAL BANDS - BAND      6; K    1; EIG  4.6007336E-02 AU
 TTTTTTTTTTTTTTTTTTTTTTTTTTTTTT PDIG        TELAPSE        1.81 TCPU        1.81
 TTTTTTTTTTTTTTTTTTTTTTTTTTTTTT MOQGAD      TELAPSE        1.81 TCPU        1.81
 TTTTTTTTTTTTTTTTTTTTTTTTTTTTTT SHELLX2     TELAPSE        1.82 TCPU        1.82
 TTTTTTTTTTTTTTTTTTTTTTTTTTTTTT MONMO3      TELAPSE        1.82 TCPU        1.82
 NUMERICALLY INTEGRATED DENSITY      9.9999758608
 TTTTTTTTTTTTTTTTTTTTTTTTTTTTTT NUMDFT      TELAPSE        1.89 TCPU        1.88
 CYC  24 ETOT(AU) -7.636571756486E+01 DETOT -1.42E-14 tst  1.39E-14 PX  1.35E-07
 TTTTTTTTTTTTTTTTTTTTTTTTTTTTTT FDIK        TELAPSE        1.89 TCPU        1.88
 INSULATING STATE - LEVEL SHIFTER    0.60 au
 TOP OF VALENCE BANDS -    BAND      5; K    1; EIG -8.5099164E-01 AU
 BOTTOM OF VIRTUAL BANDS - BAND      6; K    1; EIG  4.6007332E-02 AU
 TTTTTTTTTTTTTTTTTTTTTTTTTTTTTT PDIG        TELAPSE        1.89 TCPU        1.88
 TTTTTTTTTTTTTTTTTTTTTTTTTTTTTT MOQGAD      TELAPSE        1.89 TCPU        1.88
 TTTTTTTTTTTTTTTTTTTTTTTTTTTTTT SHELLX2     TELAPSE        1.89 TCPU        1.89
 TTTTTTTTTTTTTTTTTTTTTTTTTTTTTT MONMO3      TELAPSE        1.89 TCPU        1.89
 NUMERICALLY INTEGRATED DENSITY      9.9999758608
 TTTTTTTTTTTTTTTTTTTTTTTTTTTTTT NUMDFT      TELAPSE        1.96 TCPU        1.96
 CYC  25 ETOT(AU) -7.636571756486E+01 DETOT -2.84E-14 tst  4.72E-15 PX  5.90E-08
 TTTTTTTTTTTTTTTTTTTTTTTTTTTTTT FDIK        TELAPSE        1.96 TCPU        1.96
 INSULATING STATE - LEVEL SHIFTER    0.60 au
 TOP OF VALENCE BANDS -    BAND      5; K    1; EIG -8.5099165E-01 AU
 BOTTOM OF VIRTUAL BANDS - BAND      6; K    1; EIG  4.6007328E-02 AU
 TTTTTTTTTTTTTTTTTTTTTTTTTTTTTT PDIG        TELAPSE        1.96 TCPU        1.96
 TTTTTTTTTTTTTTTTTTTTTTTTTTTTTT MOQGAD      TELAPSE        1.96 TCPU        1.96
 TTTTTTTTTTTTTTTTTTTTTTTTTTTTTT SHELLX2     TELAPSE        1.97 TCPU        1.97
 TTTTTTTTTTTTTTTTTTTTTTTTTTTTTT MONMO3      TELAPSE        1.97 TCPU        1.97
 NUMERICALLY INTEGRATED DENSITY      9.9999758608
 TTTTTTTTTTTTTTTTTTTTTTTTTTTTTT NUMDFT      TELAPSE        2.03 TCPU        2.03
 CYC  26 ETOT(AU) -7.636571756486E+01 DETOT -2.84E-14 tst  1.43E-15 PX  7.15E-08
 TTTTTTTTTTTTTTTTTTTTTTTTTTTTTT FDIK        TELAPSE        2.03 TCPU        2.03
 INSULATING STATE - LEVEL SHIFTER    0.60 au
 TOP OF VALENCE BANDS -    BAND      5; K    1; EIG -8.5099165E-01 AU
 BOTTOM OF VIRTUAL BANDS - BAND      6; K    1; EIG  4.6007327E-02 AU
 TTTTTTTTTTTTTTTTTTTTTTTTTTTTTT PDIG        TELAPSE        2.03 TCPU        2.03
 TTTTTTTTTTTTTTTTTTTTTTTTTTTTTT MOQGAD      TELAPSE        2.03 TCPU        2.03
 TTTTTTTTTTTTTTTTTTTTTTTTTTTTTT SHELLX2     TELAPSE        2.04 TCPU        2.04
 TTTTTTTTTTTTTTTTTTTTTTTTTTTTTT MONMO3      TELAPSE        2.04 TCPU        2.04
 NUMERICALLY INTEGRATED DENSITY      9.9999758608
 TTTTTTTTTTTTTTTTTTTTTTTTTTTTTT NUMDFT      TELAPSE        2.11 TCPU        2.11
 CYC  27 ETOT(AU) -7.636571756486E+01 DETOT -1.42E-14 tst  4.71E-16 PX  1.79E-08
 TTTTTTTTTTTTTTTTTTTTTTTTTTTTTT FDIK        TELAPSE        2.11 TCPU        2.11
 INSULATING STATE - LEVEL SHIFTER    0.60 au
 TOP OF VALENCE BANDS -    BAND      5; K    1; EIG -8.5099166E-01 AU
 BOTTOM OF VIRTUAL BANDS - BAND      6; K    1; EIG  4.6007325E-02 AU
 TTTTTTTTTTTTTTTTTTTTTTTTTTTTTT PDIG        TELAPSE        2.11 TCPU        2.11
 TTTTTTTTTTTTTTTTTTTTTTTTTTTTTT MOQGAD      TELAPSE        2.11 TCPU        2.11
 TTTTTTTTTTTTTTTTTTTTTTTTTTTTTT SHELLX2     TELAPSE        2.12 TCPU        2.12
 TTTTTTTTTTTTTTTTTTTTTTTTTTTTTT MONMO3      TELAPSE        2.12 TCPU        2.12
 NUMERICALLY INTEGRATED DENSITY      9.9999758608
 TTTTTTTTTTTTTTTTTTTTTTTTTTTTTT NUMDFT      TELAPSE        2.18 TCPU        2.18
 CYC  28 ETOT(AU) -7.636571756486E+01 DETOT  0.00E+00 tst  1.42E-16 PX  0.00E+00
 TTTTTTTTTTTTTTTTTTTTTTTTTTTTTT FDIK        TELAPSE        2.18 TCPU        2.18
 INSULATING STATE - LEVEL SHIFTER    0.60 au
 TOP OF VALENCE BANDS -    BAND      5; K    1; EIG -8.5099166E-01 AU
 BOTTOM OF VIRTUAL BANDS - BAND      6; K    1; EIG  4.6007324E-02 AU
 TTTTTTTTTTTTTTTTTTTTTTTTTTTTTT PDIG        TELAPSE        2.18 TCPU        2.18
 TTTTTTTTTTTTTTTTTTTTTTTTTTTTTT MOQGAD      TELAPSE        2.18 TCPU        2.18
 TTTTTTTTTTTTTTTTTTTTTTTTTTTTTT SHELLX2     TELAPSE        2.19 TCPU        2.19

 ::: DIPOLE MOMENT ALONG NON PERIODIC DIRECTIONS:
 ::: A.U.     (X)  0.00000E+00   (Y)  0.00000E+00   (Z)  7.55662E-01
 ::: DEBYE        -0.00000E+00       -0.00000E+00       -1.92070E+00

 ::: PSEUDO TOTAL   ENERGY                        -6.7118433021177E+01
 ::: VIRIAL COEFFICIENT                            1.0619652972796E+00
 TTTTTTTTTTTTTTTTTTTTTTTTTTTTTT MONMO3      TELAPSE        2.19 TCPU        2.19
 NUMERICALLY INTEGRATED DENSITY      9.9999758608
 TTTTTTTTTTTTTTTTTTTTTTTTTTTTTT NUMDFT      TELAPSE        2.26 TCPU        2.26
 CYC  29 ETOT(AU) -7.636571756486E+01 DETOT  2.84E-14 tst  1.43E-16 PX  0.00E+00

 == SCF ENDED - CONVERGENCE ON ENERGY      E(AU) -7.6365717564858E+01 CYCLES  29


 ENERGY EXPRESSION=HARTREE+FOCK EXCH*0.00000+(PBE        EXCH)*1.00000+PBE        CORR


 TOTAL ENERGY(DFT)(AU)( 29) -7.6365717564858E+01 DE 2.8E-14 tester 1.4E-16
 TTTTTTTTTTTTTTTTTTTTTTTTTTTTTT EDFT        TELAPSE        2.26 TCPU        2.26

 *******************************************************************************
 *                             FORCE CALCULATION                               *
 *******************************************************************************

 TTTTTTTTTTTTTTTTTTTTTTTTTTTTTT NUMDFG      TELAPSE        2.41 TCPU        2.41
 INFORMATION **** EXCPOG **** EXCH. BIPO BUFFER LENGTH (WORDS) =           0
 INFORMATION **** GENPOG **** BIPO BUFFER LENGTH (WORDS) =        9100
 TTTTTTTTTTTTTTTTTTTTTTTTTTTTTT SHELXG      TELAPSE        2.44 TCPU        2.44

 CARTESIAN FORCES IN HARTREE/BOHR (ANALYTICAL)
   ATOM                     X                   Y                   Z
   1   8             0.000000000000E+00  0.000000000000E+00  2.163893035347E-02
   2   1            -4.217020023696E-03  0.000000000000E+00 -1.081946517682E-02
   3   1             4.217020023696E-03  0.000000000000E+00 -1.081946517682E-02

 RESULTANT FORCE     0.000000000000E+00  0.000000000000E+00 -1.798561299893E-13

 SYMMETRY ALLOWED FORCES (ANALYTICAL) (DIRECTION, FORCE)

    1  2.6502169E-02    2 -5.9637669E-03
 TTTTTTTTTTTTTTTTTTTTTTTTTTTTTT TOTGRA      TELAPSE        2.44 TCPU        2.44
 INFORMATION **** opta001 **** GEOMETRY OUTPUT FILE
 CLASSICAL MODEL (SCHLEGEL) USED AS INITIAL HESSIAN MATRIX
 REFERENCE GEOMETRY DEFINED

 MAX GRADIENT      0.026502  THRESHOLD              0.000045 CONVERGED NO
 RMS GRADIENT      0.019208  THRESHOLD              0.000030 CONVERGED NO

 GRADIENT NORM     0.027165  GRADIENT THRESHOLD     0.500000

 EIGENVALUES OF THE ESTIMATED HESSIAN
  0.1636      0.9654    

 INITIAL TRUST RADIUS    0.5000000000E+00

 PREDICTED ENERGY CHANGE    -0.595E-03

 INITIAL DISPLACEMENTS
  0.052334  0.033073
 TTTTTTTTTTTTTTTTTTTTTTTTTTTTTT OPTI        TELAPSE        2.44 TCPU        2.44

 OPTOPTOPTOPTOPTOPTOPTOPTOPTOPTOPTOPTOPTOPTOPTOPTOPTOPTOPTOPTOPTOPTOPTOPTOPTOPT

 STARTING GEOMETRY OPTIMIZATION - INFORMATION ON SCF MOVED TO SCFOUT.LOG
 GEOMETRY OPTIMIZATION INFORMATION STORED IN OPTINFO.DAT

 OPTOPTOPTOPTOPTOPTOPTOPTOPTOPTOPTOPTOPTOPTOPTOPTOPTOPTOPTOPTOPTOPTOPTOPTOPTOPT
 *******************************************************************************
 COORDINATE OPTIMIZATION - POINT    2
 *******************************************************************************
 ATOMS IN THE ASYMMETRIC UNIT    2 - ATOMS IN THE UNIT CELL:    3
     ATOM          X(ANGSTROM)         Y(ANGSTROM)         Z(ANGSTROM)
 *******************************************************************************
   1 T   8 O     0.000000000000E+00  0.000000000000E+00  3.919849108334E-01
   2 T   1 H    -7.716005414642E-01  0.000000000000E+00 -1.959924554167E-01
   3 F   1 H     7.716005414642E-01  0.000000000000E+00 -1.959924554167E-01

 T = ATOM BELONGING TO THE ASYMMETRIC UNIT

 TOTAL ENERGY(DFT)(AU)( 22) -7.6366440282088E+01     DE (AU)   -7.227E-04

 UPDATED TRUST RADIUS     0.500E+00

 SYMMETRY ALLOWED FORCES  (COORDINATE, FORCE)

    1  5.3746730E-03    2 -1.2188991E-03

 GRADIENT NORM     0.005511  GRADIENT THRESHOLD     0.500000

 EIGENVALUES OF THE ESTIMATED HESSIAN
  0.1472      0.8558    

 PREDICTED ENERGY CHANGE    -0.306E-04

 MAX GRADIENT      0.005375  THRESHOLD              0.000045 CONVERGED NO
 RMS GRADIENT      0.003897  THRESHOLD              0.000030 CONVERGED NO
 MAX DISPLAC.      0.013282  THRESHOLD              0.000180 CONVERGED NO
 RMS DISPLAC.      0.011096  THRESHOLD              0.000120 CONVERGED NO
 TTTTTTTTTTTTTTTTTTTTTTTTTTTTTT OPTI        TELAPSE        4.35 TCPU        4.35
 *******************************************************************************
 COORDINATE OPTIMIZATION - POINT    3
 *******************************************************************************
 ATOMS IN THE ASYMMETRIC UNIT    2 - ATOMS IN THE UNIT CELL:    3
     ATOM          X(ANGSTROM)         Y(ANGSTROM)         Z(ANGSTROM)
 *******************************************************************************
   1 T   8 O     0.000000000000E+00  0.000000000000E+00  3.977235958846E-01
   2 T   1 H    -7.684740057832E-01  0.000000000000E+00 -1.988617979423E-01
   3 F   1 H     7.684740057832E-01  0.000000000000E+00 -1.988617979423E-01

 T = ATOM BELONGING TO THE ASYMMETRIC UNIT

 TOTAL ENERGY(DFT)(AU)( 22) -7.6366469304651E+01     DE (AU)   -2.902E-05

 UPDATED TRUST RADIUS     0.500E+00

 SYMMETRY ALLOWED FORCES  (COORDINATE, FORCE)

    1 -2.1543404E-04    2 -6.0359878E-05

 GRADIENT NORM     0.000224  GRADIENT THRESHOLD     0.500000

 EIGENVALUES OF THE ESTIMATED HESSIAN
  0.1552      0.8563    

 PREDICTED ENERGY CHANGE    -0.108E-06

 MAX GRADIENT      0.000215  THRESHOLD              0.000045 CONVERGED NO
 RMS GRADIENT      0.000158  THRESHOLD              0.000030 CONVERGED NO
 MAX DISPLAC.      0.000818  THRESHOLD              0.000180 CONVERGED NO
 RMS DISPLAC.      0.000795  THRESHOLD              0.000120 CONVERGED NO
 TTTTTTTTTTTTTTTTTTTTTTTTTTTTTT OPTI        TELAPSE        6.27 TCPU        6.26
 *******************************************************************************
 COORDINATE OPTIMIZATION - POINT    4
 *******************************************************************************
 ATOMS IN THE ASYMMETRIC UNIT    2 - ATOMS IN THE UNIT CELL:    3
     ATOM          X(ANGSTROM)         Y(ANGSTROM)         Z(ANGSTROM)
 *******************************************************************************
   1 T   8 O     0.000000000000E+00  0.000000000000E+00  3.973901995452E-01
   2 T   1 H    -7.687801140038E-01  0.000000000000E+00 -1.986950997726E-01
   3 F   1 H     7.687801140038E-01  0.000000000000E+00 -1.986950997726E-01

 T = ATOM BELONGING TO THE ASYMMETRIC UNIT

 TOTAL ENERGY(DFT)(AU)( 17) -7.6366469411285E+01     DE (AU)   -1.066E-07

 UPDATED TRUST RADIUS     0.500E+00

 SYMMETRY ALLOWED FORCES  (COORDINATE, FORCE)

    1  2.9054973E-06    2  7.9963154E-08

 GRADIENT NORM     0.000003  GRADIENT THRESHOLD     0.500000

 EIGENVALUES OF THE ESTIMATED HESSIAN
  0.1564      0.8584    

 PREDICTED ENERGY CHANGE    -0.126E-10

 MAX GRADIENT      0.000003  THRESHOLD              0.000045 CONVERGED YES
 RMS GRADIENT      0.000002  THRESHOLD              0.000030 CONVERGED YES
 MAX DISPLAC.      0.000008  THRESHOLD              0.000180 CONVERGED YES
 RMS DISPLAC.      0.000008  THRESHOLD              0.000120 CONVERGED YES

 CONVERGENCE TESTS SATISFIED AFTER   4 ENERGY AND GRADIENT CALCULATIONS
++++++++++++++++++++++++++++++++++++++++++++++++++++++++++++++++++++++
 FINALRUN OPTION: RE-STARTING OPTIMIZATION
++++++++++++++++++++++++++++++++++++++++++++++++++++++++++++++++++++++
 TTTTTTTTTTTTTTTTTTTTTTTTTTTTTT OPTI        TELAPSE        7.83 TCPU        7.82
 *******************************************************************************
 COORDINATE OPTIMIZATION - POINT    5
 *******************************************************************************
 ATOMS IN THE ASYMMETRIC UNIT    2 - ATOMS IN THE UNIT CELL:    3
     ATOM          X(ANGSTROM)         Y(ANGSTROM)         Z(ANGSTROM)
 *******************************************************************************
   1 T   8 O     0.000000000000E+00  0.000000000000E+00  3.973938707197E-01
   2 T   1 H    -7.687773144066E-01  0.000000000000E+00 -1.986969353598E-01
   3 F   1 H     7.687773144066E-01  0.000000000000E+00 -1.986969353598E-01

 T = ATOM BELONGING TO THE ASYMMETRIC UNIT

 ENERGY DIFFERENCE WITH RESPECT TO FIRST CALCULATION USING
 THE PRESENT REFERENCE GEOMETRY:  7.636646941128E+01

 MAXIMUM ATOM DISPLACEMENT WITH RESPECT TO
 THE PRESENT REFERENCE GEOMETRY:   5.295187751889E-02

 REFERENCE GEOMETRY WILL BE CHANGED

 TOTAL ENERGY(DFT)(AU)( 29) -7.6366469411298E+01     DE (AU)   -1.272E-11

 SYMMETRY ALLOWED FORCES  (COORDINATE, FORCE)

    1  1.3773341E-08    2 -7.5013205E-09

 GRADIENT NORM     0.000000  GRADIENT THRESHOLD     0.500000

 HESSIAN UPDATE SKIPPED

 EIGENVALUES OF THE ESTIMATED HESSIAN
  0.1564      0.8584    

 PREDICTED ENERGY CHANGE    -0.151E-15

 MAX GRADIENT      0.000000  THRESHOLD              0.000045 CONVERGED YES
 RMS GRADIENT      0.000000  THRESHOLD              0.000030 CONVERGED YES
 MAX DISPLAC.      0.000000  THRESHOLD              0.000180 CONVERGED YES
 RMS DISPLAC.      0.000000  THRESHOLD              0.000120 CONVERGED YES

 CONVERGENCE TESTS SATISFIED AFTER   5 ENERGY AND GRADIENT CALCULATIONS

 ******************************************************************
 * OPT END - CONVERGED * E(AU):  -7.636646941130E+01  POINTS    5 *
 ******************************************************************

 EIGENVECTORS IN FORTRAN UNIT 10

 NEIGHBORS OF THE NON-EQUIVALENT ATOMS

 N = NUMBER OF NEIGHBORS AT DISTANCE R
    ATOM  N     R/ANG      R/AU   NEIGHBORS (ATOM LABELS AND CELL INDICES)
   1 O    2     0.9728     1.8383    2 H    0 0 0    3 H    0 0 0

   2 H    1     0.9728     1.8383    1 O    0 0 0
   2 H    1     1.5376     2.9056    3 H    0 0 0


 FINAL OPTIMIZED GEOMETRY - DIMENSIONALITY OF THE SYSTEM      0
 (NON PERIODIC DIRECTION: LATTICE PARAMETER FORMALLY SET TO 500)
 *******************************************************************************
 ATOMS IN THE ASYMMETRIC UNIT    2 - ATOMS IN THE UNIT CELL:    3
     ATOM          X(ANGSTROM)         Y(ANGSTROM)         Z(ANGSTROM)
 *******************************************************************************
   1 T   8 O     0.000000000000E+00  0.000000000000E+00  3.973938707197E-01
   2 T   1 H    -7.687773144066E-01  0.000000000000E+00 -1.986969353598E-01
   3 F   1 H     7.687773144066E-01  0.000000000000E+00 -1.986969353598E-01

 T = ATOM BELONGING TO THE ASYMMETRIC UNIT
 INFORMATION **** fort.34 **** GEOMETRY OUTPUT FILE

 *******************************************************************************
 *                                                                             *
 *                                                                             *
 *         FFFFF  RRRR   EEEE   QQQ   U   U  EEEE  N   N   CCC  Y   Y          *
 *         F      R   R  E     Q   Q  U   U  E     NN  N  C      Y Y           *
 *         FFF    RRRR   EEEE  Q   Q  U   U  EEEE  N N N  C       Y            *
 *         F      R   R  E     Q  QQ  U   U  E     N  NN  C       Y            *
 *         F      R   R  EEEE   QQ Q   UUU   EEEE  N   N   CCC    Y            *
 *                                                                             *
 *                                                                             *
 * CALCULATION OF PHONON FREQUENCIES AT THE GAMMA POINT.                       *
 *                                                                             *
 * SYMMETRY IS EXPLOITED TO BUILD THE TOTAL HESSIAN MATRIX.                    *
 * (F. PASCALE PHD THESIS TURIN-PARIS 2002)                                    *
 *                                                                             *
 *******************************************************************************


 * INTENSITIES COMPUTED VIA THE BERRY PHASE APPROACH                           *
 *                                                                             *
 * REFERENCES TO BE QUOTED WHEN USING THIS MODULE:                             *
 *                                                                             *
 * F. Pascale, C.M. Zicovich-Wilson, F. Lopez, B. Civalleri                    *
 * R. Orlando, R. Dovesi                                                       *
 * The calculation of the vibration frequencies of crystalline                 *
 * compounds and its implementation in the CRYSTAL code                        *
 * J. Comput. Chem. 25 (2004) 888-897                                          *
 *                                                                             *
 * C.M. Zicovich-Wilson, F. Pascale, C. Roetti, V.R. Saunders,                 *
 * R. Orlando, R. Dovesi                                                       *
 * The calculation of the vibration frequencies of alpha-quartz:               *
 * the effect of hamiltonian and basis set                                     *
 * J. Comput. Chem. 25 (2004) 1873-1881                                        *
 *******************************************************************************



 ATOMS ISOTOPIC MASS (AMU) FOR FREQUENCY CALCULATION 

    1 O      15.9949    2 H       1.0078    3 H       1.0078

 INFORMATION CONCERNING THE SCF+GRADIENT CALCULATIONS REQUIRED FOR
 GENERATING FREQUENCIES. IN PRINCIPLE 3N+1 SCF + GRADIENT
 CALCULATIONS  ARE REQUIRED;
 FOR EACH OF THEM THE REMAINING POINT SYMMETRY IS INDICATED.
 POINT SYMMETRY PERMITS TO GENERATE GRADIENTS FOR DISPLACEMENT B 
 STARTING FROM THE GRADIENT GENERATED BY DISPLACEMENT A.

   N   LABEL SYMBOL DISPLACEMENT     SYM. 

   1     EQUILIBRIUM GEOMETRY            4

   2      1   O            DX        GENERATED BY TRANSLATIONAL INVARIANCE
   3      1   O            DY        GENERATED BY TRANSLATIONAL INVARIANCE
   4      1   O            DZ        GENERATED BY TRANSLATIONAL INVARIANCE
   5      2   H            DX           2
   6      2   H            DY           1
   7      2   H            DZ           2
 USE OF RESIDUAL SYMMETRY AFTER DISPLACEMENT

 NUMERICAL GRADIENT COMPUTED WITH A DOUBLE DISPLACEMENT (+-DX) FOR EACH
 CARTESIAN COORDINATE WITH RESPECT TO THE EQUILIBRIUM CONFIGURATION
 DX=  0.003 ANGSTROM
 NUMBER OF IRREDUCIBLE ATOMS                     2
 NUMBER OF SCF+GRADIENT CALCULATIONS             7

  ATOM  SYMOP  ORDER
    1      4      2
    2      2      2

 ATOM  : IRREDUCIBLE ATOM
 SYMOP : NUMBER OF SYMMETRY OPERATORS THAT DOESN'T MOVE THE IRREDUCIBLE ATOM
 ORDER : MAXIMUM ORDER AMONG THE OPERATORS OF THE IRREDUCIBLE ATOM

 *******************************************************************************


 MATRIX SIZE: P(G)     900, F(G)     465, P(G) IRR     355, F(G) IRR     355
 MAX G-VECTOR INDEX FOR 1- AND 2-ELECTRON INTEGRALS   1

 TTTTTTTTTTTTTTTTTTTTTTTTTTTTTT INPUT       TELAPSE       10.25 TCPU       10.24

 SYMMETRY ALLOWED INTERNAL DEGREE(S) OF FREEDOM:   2
 TTTTTTTTTTTTTTTTTTTTTTTTTTTTTT SYMM        TELAPSE       10.25 TCPU       10.24
 TTTTTTTTTTTTTTTTTTTTTTTTTTTTTT INT_SCREEN  TELAPSE       10.25 TCPU       10.24

 HHHHHHHHHHHHHHHHHHHHHHHHHHHHHHHHHHHHHHHHHHHHHHHHHHHHHHHHHHHHHHHHHHHHHHHHHHHHHHH
                   FORCE CONSTANT MATRIX - NUMERICAL ESTIMATE
 HHHHHHHHHHHHHHHHHHHHHHHHHHHHHHHHHHHHHHHHHHHHHHHHHHHHHHHHHHHHHHHHHHHHHHHHHHHHHHH
 MAX ABS(DGRAD): MAXIMUM ABSOLUTE GRADIENT DIFFERENCE WITH RESPECT TO
                 THE CENTRAL POINT
 DE:             ENERGY DIFFERENCE WITH RESPECT TO THE CENTRAL POINT
                 (DE IS EXPECTED TO BE POSITIVE FOR ALL DISPLACEMENTS)

   ATOM      MAX ABS(DGRAD)       TOTAL ENERGY (AU)  N.CYC      DE       SYM
    CENTRAL POINT             -7.636646941130E+01     0     0.0000E+00     4
    2 H  DX   2.0017E-03      -7.636646374858E+01    13     5.6627E-06     2
    2 H  DX   1.9776E-03      -7.636646379430E+01    17     5.6170E-06     2
    2 H  DY   3.5629E-06      -7.636646940873E+01    22     2.5722E-09     1
    2 H  DY   3.5630E-06      -7.636646940873E+01    22     2.5706E-09     1
    2 H  DZ   1.4211E-03      -7.636646617517E+01    19     3.2361E-06     2
    2 H  DZ   1.4023E-03      -7.636646618488E+01    17     3.2264E-06     2

 CAPPA:IS1  1;IS2  1;IS3  1; K PTS MONK NET   1; SYMMOPS:K SPACE   8;G SPACE   4


 MATRIX SIZE: P(G)     900, F(G)     465, P(G) IRR     355, F(G) IRR     355
 MAX G-VECTOR INDEX FOR 1- AND 2-ELECTRON INTEGRALS   1

 TTTTTTTTTTTTTTTTTTTTTTTTTTTTTT INPUT       TELAPSE       34.13 TCPU       34.12

 SYMMETRY ALLOWED INTERNAL DEGREE(S) OF FREEDOM:   2
 TTTTTTTTTTTTTTTTTTTTTTTTTTTTTT SYMM        TELAPSE       34.13 TCPU       34.12
 TTTTTTTTTTTTTTTTTTTTTTTTTTTTTT INT_SCREEN  TELAPSE       34.13 TCPU       34.12

 +++ SYMMETRY ADAPTION OF VIBRATIONAL MODES +++

 SYMMETRY INFORMATION:
 K-LITTLE GROUP: CLASS TABLE, CHARACTER TABLE.
 IRREP-(DIMENSION, NO. IRREDUCIBLE SETS)
 [WARNINGS: (1) ONLY ACTIVE IRREPS ARE GENERATED AND LISTED.
            (2) ONLY RELEVANT CLASSES ARE CONSIDERED IN THE CHARACTER TABLE
            (3) SYMBOLS MAY NOT FULLY COINCIDE WITH THOSE FROM TEXT BOOKS.]

 (P, D, RP, RD, STAND FOR PAIRING, DOUBLING, REAL PAIRING AND REAL DOUBLING 
 OF THE IRREPS (SEE MANUAL))

 CLASS  | GROUP OPERATORS (SEE SYMMOPS KEYWORD)
 --------------------------------------------------------------------
 C2     |   2;
 SGV    |   3;
 SGV'   |   4;

 IRREP/CLA      E     C2    SGV   SGV'
 -------------------------------------
  MULTIP |      1      1      1      1
 -------------------------------------
    A1   |   1.00   1.00   1.00   1.00
    A2   |   1.00   1.00  -1.00  -1.00
    B1   |   1.00  -1.00   1.00  -1.00
    B2   |   1.00  -1.00  -1.00   1.00

 A1 -(1,   3); A2 -(1,   1); B1 -(1,   2); B2 -(1,   3);


 HHHHHHHHHHHHHHHHHHHHHHHHHHHHHHHHHHHHHHHHHHHHHHHHHHHHHHHHHHHHHHHHHHHHHHHHHHHHHH
 EIGENVALUES (EIGV) OF THE MASS WEIGHTED HESSIAN MATRIX AND HARMONIC TRANSVERSE
 OPTICAL (TO) FREQUENCIES. IRREP LABELS REFER TO SYMMETRY REPRESENTATION
 ANALYSIS; A AND I INDICATE WHETHER THE MODE IS ACTIVE OR INACTIVE,
 RESPECTIVELY, FOR IR AND RAMAN; INTEGRATED IR INTENSITIES IN BRACKETS.

 CONVERSION FACTORS FOR FREQUENCIES:
      1 CM**(-1) =   0.2194746E+06 HARTREE
      1 THZ      =   0.2997925E-01 CM**(-1)

 HHHHHHHHHHHHHHHHHHHHHHHHHHHHHHHHHHHHHHHHHHHHHHHHHHHHHHHHHHHHHHHHHHHHHHHHHHHHHH

    MODES         EIGV          FREQUENCIES     IRREP  IR   INTENS    RAMAN
             (HARTREE**2)   (CM**-1)     (THZ)             (KM/MOL)
    1-   1   -0.8458E-13     -0.0638   -0.0019  (B2 )   A (     0.00)   A
    2-   2    0.0000E+00      0.0000    0.0000  (A2 )   I (     0.00)   A
    3-   3    0.3807E-20      0.0000    0.0000  (A1 )   A (     0.00)   A
    4-   4    0.1523E-19      0.0000    0.0000  (B2 )   A (     0.00)   A
    5-   5    0.8917E-14      0.0207    0.0006  (B1 )   A (     0.00)   A
    6-   6    0.7123E-13      0.0586    0.0018  (B1 )   A (     0.00)   A
    7-   7    0.5228E-04   1586.9513   47.5756  (A1 )   A (     0.00)   A
    8-   8    0.2836E-03   3695.9917  110.8030  (A1 )   A (     0.00)   A
    9-   9    0.3017E-03   3812.0003  114.2809  (B2 )   A (     0.00)   A

 NORMAL MODES NORMALIZED TO CLASSICAL AMPLITUDES

 FREQ(CM**-1)     -0.06      0.00      0.00      0.00      0.02      0.06

 AT.   1 O  X    10.2340    0.0000    0.0000   -0.0494    0.0000    0.0000
            Y     0.0000    0.0000    0.0000    0.0000    0.0000   11.3362
            Z     0.0000    0.0000    0.2356    0.0000    0.0000    0.0000
 AT.   2 H  X    10.2340    0.0000   -0.0000    0.3916    0.0000    0.0000
            Y     0.0000    0.7044    0.0000    0.0000    0.7044    0.0000
            Z     0.0000    0.0000    0.2356   -0.5687    0.0000    0.0000
 AT.   3 H  X    10.2340    0.0000    0.0000    0.3916    0.0000    0.0000
            Y     0.0000   -0.7044    0.0000    0.0000    0.7044    0.0000
            Z     0.0000    0.0000    0.2356    0.5687    0.0000    0.0000

 FREQ(CM**-1)   1586.95   3695.99   3812.00

 AT.   1 O  X     0.0000    0.0000   -0.0120
            Y     0.0000    0.0000    0.0000
            Z    -0.0189   -0.0087    0.0000
 AT.   2 H  X    -0.1112    0.1042    0.0952
            Y     0.0000    0.0000    0.0000
            Z     0.1498    0.0687    0.0739
 AT.   3 H  X     0.1112   -0.1042    0.0952
            Y     0.0000    0.0000    0.0000
            Z     0.1498    0.0687   -0.0739

 *******************************************************************************

 VIBRATIONAL TEMPERATURES (K) [MODE NUMBER;IRREP]

 TO MODES
  2283.3 [   7;A1 ]  5317.7 [   8;A1 ]  5484.6 [   9;B2 ]

 *******************************************************************************

 HARMONIC VIBRATIONAL CONTRIBUTIONS TO THERMODYNAMIC FUNCTIONS AT GIVEN
 TEMPERATURE AND PRESSURE:

 (EL = ELECTRONIC ENERGY
  E0 = ZERO-POINT ENERGY
  ET = THERMAL CONTRIBUTION TO THE VIBRATIONAL ENERGY
  PV = PRESSURE * VOLUME
  TS = TEMPERATURE * ENTROPY)

                          AU/CELL             EV/CELL                 KJ/MOL
 EL            :     -76.366469411298   -2078.037278055194     -200500.13718377
 E0            :       0.020719805627       0.563814574890          54.39984201

 
 WARNING **** THERMOFRQ **** PV TERM COMPUTED ONLY FOR 3D SYSTEMS

 ---------------------
 -- THERMOCHEMISTRY --
 ---------------------

 Temperature   50.00 K, Pressure  0.10132500E+00 MPA
 Rotational symmetry number:   3
 Moments of inertia (a.u.) and Rotational temperatures (K)
 with respect to principal axes:
                          1                   2                     3
 Moments --            2.271393048958       6.525554618535       4.254161569577
 Temperatures --      38.132465176609      13.273019904815      20.359785336123

 THERMAL ENERGY           AU                  EV                      J/MOL
 Translational:        0.000237511136       0.006463006591         623.58540000
 Rotational:           0.000237511136       0.006463006591         623.58540000
 E0(Vibrational)       0.020719805627       0.563814574890       54399.84200743
 Vibr. corr.:          0.000000000000       0.000000000000           0.00000000
 Total:                0.021194827900       0.576740588072       55647.01280823


 ENTROPY                  AU/K                EV/K                    J/(MOL*K)
 Translational:        0.000041015409       0.001116086017         107.68594079
 Rotational:           0.000007035418       0.000191443444          18.47148611
 Vibrational:          0.000000000000       0.000000000000           0.00000000
 Total:                0.000048050826       0.001307529460         126.15742697

 HEAT CAPACITY            mAU/K               mEV/K                   J/(MOL*K)
 Translational:        0.004750222725       0.129260131817          12.47170800
 Rotational:           0.004750222725       0.129260131817          12.47170800
 Vibrational:          0.000000000000       0.000000000000           0.00000000
 Total:                0.009500445451       0.258520263633          24.94341602


 *******************************************************************************

 THERMODYNAMIC FUNCTIONS TAKING INTO ACCOUNT MOLECULAR
         ROTATIONAL, TRANSLATIONAL AND VIBRATIONAL CONTRIBUTIONS

 AT (T =   50.00 K, P =   0.10132500E+00 MPA):

                          AU/CELL             EV/CELL                 KJ/MOL
 ET            :       0.000475022273       0.012926013182           1.24717080
 PV            :       0.000158340758       0.004308671061           0.41572360
 TS            :       0.002402541321       0.065376473013           6.30787135
 ET+PV-TS      :      -0.001769178291      -0.048141788771          -4.64497695
 EL+E0+ET+PV-TS:     -76.347518783961   -2077.521605269075     -200450.38231871

 OTHER THERMODYNAMIC FUNCTIONS:

                      mHARTREE/(CELL*K)     mEV/(CELL*K)              J/(MOL*K)
 ENTROPY       :       0.048050826415       1.307529460269         126.15742697
 HEAT CAPACITY :       0.009500445451       0.258520263633          24.94341602

 *******************************************************************************

 ---------------------
 -- THERMOCHEMISTRY --
 ---------------------

 Temperature  100.00 K, Pressure  0.10132500E+00 MPA
 Rotational symmetry number:   3
 Moments of inertia (a.u.) and Rotational temperatures (K)
 with respect to principal axes:
                          1                   2                     3
 Moments --            2.271393048958       6.525554618535       4.254161569577
 Temperatures --      38.132465176609      13.273019904815      20.359785336123

 THERMAL ENERGY           AU                  EV                      J/MOL
 Translational:        0.000475022273       0.012926013182        1247.17080000
 Rotational:           0.000475022273       0.012926013182        1247.17080000
 E0(Vibrational)       0.020719805627       0.563814574890       54399.84200743
 Vibr. corr.:          0.000000000001       0.000000000024           0.00000230
 Total:                0.021669850173       0.589666601278       56894.18361133


 ENTROPY                  AU/K                EV/K                    J/(MOL*K)
 Translational:        0.000046503081       0.001265413176         122.09382285
 Rotational:           0.000010328021       0.000281039740          27.11621534
 Vibrational:          0.000000000000       0.000000000000           0.00000002
 Total:                0.000056831102       0.001546452916         149.21003831

 HEAT CAPACITY            mAU/K               mEV/K                   J/(MOL*K)
 Translational:        0.004750222725       0.129260131817          12.47170800
 Rotational:           0.004750222725       0.129260131817          12.47170800
 Vibrational:          0.000000000200       0.000000005450           0.00000053
 Total:                0.009500445651       0.258520269083          24.94341654


 *******************************************************************************

 THERMODYNAMIC FUNCTIONS TAKING INTO ACCOUNT MOLECULAR
         ROTATIONAL, TRANSLATIONAL AND VIBRATIONAL CONTRIBUTIONS

 AT (T =  100.00 K, P =   0.10132500E+00 MPA):

                          AU/CELL             EV/CELL                 KJ/MOL
 ET            :       0.000950044546       0.025852026387           2.49434160
 PV            :       0.000316681515       0.008617342121           0.83144720
 TS            :       0.005683110240       0.154645291632          14.92100383
 ET+PV-TS      :      -0.004416384179      -0.120175923124         -11.59521503
 EL+E0+ET+PV-TS:     -76.350165989849   -2077.593639403428     -200457.33255679

 OTHER THERMODYNAMIC FUNCTIONS:

                      mHARTREE/(CELL*K)     mEV/(CELL*K)              J/(MOL*K)
 ENTROPY       :       0.056831102395       1.546452916325         149.21003831
 HEAT CAPACITY :       0.009500445651       0.258520269083          24.94341654

 *******************************************************************************

 ---------------------
 -- THERMOCHEMISTRY --
 ---------------------

 Temperature  150.00 K, Pressure  0.10132500E+00 MPA
 Rotational symmetry number:   3
 Moments of inertia (a.u.) and Rotational temperatures (K)
 with respect to principal axes:
                          1                   2                     3
 Moments --            2.271393048958       6.525554618535       4.254161569577
 Temperatures --      38.132465176609      13.273019904815      20.359785336123

 THERMAL ENERGY           AU                  EV                      J/MOL
 Translational:        0.000712533409       0.019389019773        1870.75620000
 Rotational:           0.000712533409       0.019389019773        1870.75620000
 E0(Vibrational)       0.020719805627       0.563814574890       54399.84200743
 Vibr. corr.:          0.000000001772       0.000000048217           0.00465220
 Total:                0.022144874217       0.602592662652       58141.35906203


 ENTROPY                  AU/K                EV/K                    J/(MOL*K)
 Translational:        0.000049713164       0.001352763965         130.52189357
 Rotational:           0.000012254071       0.000333450213          32.17305778
 Vibrational:          0.000000000013       0.000000000343           0.00003305
 Total:                0.000061967247       0.001686214521         162.69498450

 HEAT CAPACITY            mAU/K               mEV/K                   J/(MOL*K)
 Translational:        0.004750222725       0.129260131817          12.47170800
 Rotational:           0.004750222725       0.129260131817          12.47170800
 Vibrational:          0.000000179813       0.000004892957           0.00047210
 Total:                0.009500625264       0.258525156590          24.94388811


 *******************************************************************************

 THERMODYNAMIC FUNCTIONS TAKING INTO ACCOUNT MOLECULAR
         ROTATIONAL, TRANSLATIONAL AND VIBRATIONAL CONTRIBUTIONS

 AT (T =  150.00 K, P =   0.10132500E+00 MPA):

                          AU/CELL             EV/CELL                 KJ/MOL
 ET            :       0.001425068590       0.038778087762           3.74151705
 PV            :       0.000475022273       0.012926013182           1.24717080
 TS            :       0.009295087075       0.252932178124          24.40424768
 ET+PV-TS      :      -0.007394996213      -0.201228077181         -19.41555982
 EL+E0+ET+PV-TS:     -76.353144601883   -2077.674691557484     -200465.15290158

 OTHER THERMODYNAMIC FUNCTIONS:

                      mHARTREE/(CELL*K)     mEV/(CELL*K)              J/(MOL*K)
 ENTROPY       :       0.061967247164       1.686214520827         162.69498450
 HEAT CAPACITY :       0.009500625264       0.258525156590          24.94388811

 *******************************************************************************

 ---------------------
 -- THERMOCHEMISTRY --
 ---------------------

 Temperature  200.00 K, Pressure  0.10132500E+00 MPA
 Rotational symmetry number:   3
 Moments of inertia (a.u.) and Rotational temperatures (K)
 with respect to principal axes:
                          1                   2                     3
 Moments --            2.271393048958       6.525554618535       4.254161569577
 Temperatures --      38.132465176609      13.273019904815      20.359785336123

 THERMAL ENERGY           AU                  EV                      J/MOL
 Translational:        0.000950044545       0.025852026363        2494.34160000
 Rotational:           0.000950044545       0.025852026363        2494.34160000
 E0(Vibrational)       0.020719805627       0.563814574890       54399.84200743
 Vibr. corr.:          0.000000079641       0.000002167133           0.20909652
 Total:                0.022619974358       0.615520794750       59388.73430715


 ENTROPY                  AU/K                EV/K                    J/(MOL*K)
 Translational:        0.000051990754       0.001414740336         136.50170491
 Rotational:           0.000013620625       0.000370636036          35.76094458
 Vibrational:          0.000000000433       0.000000011785           0.00113706
 Total:                0.000065611811       0.001785388157         172.26378666

 HEAT CAPACITY            mAU/K               mEV/K                   J/(MOL*K)
 Translational:        0.004750222725       0.129260131817          12.47170800
 Rotational:           0.004750222725       0.129260131817          12.47170800
 Vibrational:          0.000004546076       0.000123705019           0.01193572
 Total:                0.009504991527       0.258643968653          24.95535174


 *******************************************************************************

 THERMODYNAMIC FUNCTIONS TAKING INTO ACCOUNT MOLECULAR
         ROTATIONAL, TRANSLATIONAL AND VIBRATIONAL CONTRIBUTIONS

 AT (T =  200.00 K, P =   0.10132500E+00 MPA):

                          AU/CELL             EV/CELL                 KJ/MOL
 ET            :       0.001900168731       0.051706219859           4.98889230
 PV            :       0.000633363030       0.017234684242           1.66289440
 TS            :       0.013122362288       0.357077631335          34.45275733
 ET+PV-TS      :      -0.010588830527      -0.288136727234         -27.80097063
 EL+E0+ET+PV-TS:     -76.356338436198   -2077.761600207538     -200473.53831239

 OTHER THERMODYNAMIC FUNCTIONS:

                      mHARTREE/(CELL*K)     mEV/(CELL*K)              J/(MOL*K)
 ENTROPY       :       0.065611811441       1.785388156676         172.26378666
 HEAT CAPACITY :       0.009504991527       0.258643968653          24.95535174

 *******************************************************************************

 ---------------------
 -- THERMOCHEMISTRY --
 ---------------------

 Temperature  250.00 K, Pressure  0.10132500E+00 MPA
 Rotational symmetry number:   3
 Moments of inertia (a.u.) and Rotational temperatures (K)
 with respect to principal axes:
                          1                   2                     3
 Moments --            2.271393048958       6.525554618535       4.254161569577
 Temperatures --      38.132465176609      13.273019904815      20.359785336123

 THERMAL ENERGY           AU                  EV                      J/MOL
 Translational:        0.001187555681       0.032315032954        3117.92700000
 Rotational:           0.001187555681       0.032315032954        3117.92700000
 E0(Vibrational)       0.020719805627       0.563814574890       54399.84200743
 Vibr. corr.:          0.000000781259       0.000021259127           2.05119414
 Total:                0.023095698248       0.628465899926       60637.74720556


 ENTROPY                  AU/K                EV/K                    J/(MOL*K)
 Translational:        0.000053757390       0.001462812944         141.14000693
 Rotational:           0.000014680606       0.000399479600          38.54392579
 Vibrational:          0.000000003467       0.000000094347           0.00910308
 Total:                0.000068441463       0.001862386892         179.69303592

 HEAT CAPACITY            mAU/K               mEV/K                   J/(MOL*K)
 Translational:        0.004750222725       0.129260131817          12.47170800
 Rotational:           0.004750222725       0.129260131817          12.47170800
 Vibrational:          0.000028544962       0.000776747906           0.07494479
 Total:                0.009528990413       0.259297011539          25.01836080


 *******************************************************************************

 THERMODYNAMIC FUNCTIONS TAKING INTO ACCOUNT MOLECULAR
         ROTATIONAL, TRANSLATIONAL AND VIBRATIONAL CONTRIBUTIONS

 AT (T =  250.00 K, P =   0.10132500E+00 MPA):

                          AU/CELL             EV/CELL                 KJ/MOL
 ET            :       0.002375892621       0.064651325035           6.23790520
 PV            :       0.000791703788       0.021543355303           2.07861800
 TS            :       0.017110365763       0.465596722894          44.92325898
 ET+PV-TS      :      -0.013942769354      -0.379402042556         -36.60673578
 EL+E0+ET+PV-TS:     -76.359692375025   -2077.852865522860     -200482.34407754

 OTHER THERMODYNAMIC FUNCTIONS:

                      mHARTREE/(CELL*K)     mEV/(CELL*K)              J/(MOL*K)
 ENTROPY       :       0.068441463052       1.862386891578         179.69303592
 HEAT CAPACITY :       0.009528990413       0.259297011539          25.01836080

 *******************************************************************************

 ---------------------
 -- THERMOCHEMISTRY --
 ---------------------

 Temperature  300.00 K, Pressure  0.10132500E+00 MPA
 Rotational symmetry number:   3
 Moments of inertia (a.u.) and Rotational temperatures (K)
 with respect to principal axes:
                          1                   2                     3
 Moments --            2.271393048958       6.525554618535       4.254161569577
 Temperatures --      38.132465176609      13.273019904815      20.359785336123

 THERMAL ENERGY           AU                  EV                      J/MOL
 Translational:        0.001425066818       0.038778039545        3741.51240000
 Rotational:           0.001425066818       0.038778039545        3741.51240000
 E0(Vibrational)       0.020719805627       0.563814574890       54399.84200743
 Vibr. corr.:          0.000003581732       0.000097463872           9.40383501
 Total:                0.023573520994       0.641468117852       61892.27064723


 ENTROPY                  AU/K                EV/K                    J/(MOL*K)
 Translational:        0.000055200836       0.001502091125         144.92977563
 Rotational:           0.000015546674       0.000423046509          40.81778701
 Vibrational:          0.000000013507       0.000000367551           0.03546333
 Total:                0.000070761018       0.001925505186         185.78302609

 HEAT CAPACITY            mAU/K               mEV/K                   J/(MOL*K)
 Translational:        0.004750222725       0.129260131817          12.47170800
 Rotational:           0.004750222725       0.129260131817          12.47170800
 Vibrational:          0.000090930658       0.002474348995           0.23873841
 Total:                0.009591376109       0.260994612628          25.18215442


 *******************************************************************************

 THERMODYNAMIC FUNCTIONS TAKING INTO ACCOUNT MOLECULAR
         ROTATIONAL, TRANSLATIONAL AND VIBRATIONAL CONTRIBUTIONS

 AT (T =  300.00 K, P =   0.10132500E+00 MPA):

                          AU/CELL             EV/CELL                 KJ/MOL
 ET            :       0.002853715367       0.077653542962           7.49242864
 PV            :       0.000950044545       0.025852026363           2.49434160
 TS            :       0.021228305345       0.577651555668          55.73490783
 ET+PV-TS      :      -0.017424545433      -0.474145986342         -45.74813759
 EL+E0+ET+PV-TS:     -76.363174151103   -2077.947609466646     -200491.48547935

 OTHER THERMODYNAMIC FUNCTIONS:

                      mHARTREE/(CELL*K)     mEV/(CELL*K)              J/(MOL*K)
 ENTROPY       :       0.070761017816       1.925505185559         185.78302609
 HEAT CAPACITY :       0.009591376109       0.260994612628          25.18215442

 *******************************************************************************

 ---------------------
 -- THERMOCHEMISTRY --
 ---------------------

 Temperature  350.00 K, Pressure  0.10132500E+00 MPA
 Rotational symmetry number:   3
 Moments of inertia (a.u.) and Rotational temperatures (K)
 with respect to principal axes:
                          1                   2                     3
 Moments --            2.271393048958       6.525554618535       4.254161569577
 Temperatures --      38.132465176609      13.273019904815      20.359785336123

 THERMAL ENERGY           AU                  EV                      J/MOL
 Translational:        0.001662577954       0.045241046136        4365.09780000
 Rotational:           0.001662577954       0.045241046136        4365.09780000
 E0(Vibrational)       0.020719805627       0.563814574890       54399.84200743
 Vibr. corr.:          0.000010639729       0.000289521749          27.93460497
 Total:                0.024055601264       0.654586188912       63157.97221800


 ENTROPY                  AU/K                EV/K                    J/(MOL*K)
 Translational:        0.000056421253       0.001535300354         148.13397941
 Rotational:           0.000016278924       0.000442972046          42.74030928
 Vibrational:          0.000000035054       0.000000953866           0.09203406
 Total:                0.000072735231       0.001979226266         190.96632287

[...]

 Temperature  500.00 K, Pressure  0.10132500E+00 MPA
 Rotational symmetry number:   3
 Moments of inertia (a.u.) and Rotational temperatures (K)
 with respect to principal axes:
                          1                   2                     3
 Moments --            2.271393048958       6.525554618535       4.254161569577
 Temperatures --      38.132465176609      13.273019904815      20.359785336123

 THERMAL ENERGY           AU                  EV                      J/MOL
 Translational:        0.002375111363       0.064630065908        6235.85400000
 Rotational:           0.002375111363       0.064630065908        6235.85400000
 E0(Vibrational)       0.020719805627       0.563814574890       54399.84200743
 Vibr. corr.:          0.000076648799       0.002085719867         201.24139437
 Total:                0.025546677152       0.695160426574       67072.79140980


 ENTROPY                  AU/K                EV/K                    J/(MOL*K)
 Translational:        0.000059245062       0.001612140104         155.54788900
 Rotational:           0.000017973210       0.000489075896          47.18865503
 Vibrational:          0.000000186516       0.000005075365           0.48969833
 Total:                0.000077404788       0.002106291366         203.22624249

 HEAT CAPACITY            mAU/K               mEV/K                   J/(MOL*K)
 Translational:        0.004750222725       0.129260131817          12.47170800
 Rotational:           0.004750222725       0.129260131817          12.47170800
 Vibrational:          0.000716070509       0.019485269163           1.88004286
 Total:                0.010216515960       0.278005532796          26.82345887


 *******************************************************************************

 THERMODYNAMIC FUNCTIONS TAKING INTO ACCOUNT MOLECULAR
         ROTATIONAL, TRANSLATIONAL AND VIBRATIONAL CONTRIBUTIONS

 AT (T =  500.00 K, P =   0.10132500E+00 MPA):

                          AU/CELL             EV/CELL                 KJ/MOL
 ET            :       0.004826871525       0.131345851683          12.67294940
 PV            :       0.001583407575       0.043086710606           4.15723600
 TS            :       0.038702394045       1.053145682852         101.61312124
 ET+PV-TS      :      -0.032292114945      -0.878713120563         -84.78293584
 EL+E0+ET+PV-TS:     -76.378041720616   -2078.352176600868     -200530.52027760

 OTHER THERMODYNAMIC FUNCTIONS:

                      mHARTREE/(CELL*K)     mEV/(CELL*K)              J/(MOL*K)
 ENTROPY       :       0.077404788090       2.106291365705         203.22624249
 HEAT CAPACITY :       0.010216515960       0.278005532796          26.82345887

 *******************************************************************************

 ---------------------
 -- THERMOCHEMISTRY --
 ---------------------

 Temperature  550.00 K, Pressure  0.10132500E+00 MPA
 Rotational symmetry number:   3
 Moments of inertia (a.u.) and Rotational temperatures (K)
 with respect to principal axes:
                          1                   2                     3
 Moments --            2.271393048958       6.525554618535       4.254161569577
 Temperatures --      38.132465176609      13.273019904815      20.359785336123

 THERMAL ENERGY           AU                  EV                      J/MOL
 Translational:        0.002612622499       0.071093072499        6859.43940000
 Rotational:           0.002612622499       0.071093072499        6859.43940000
 E0(Vibrational)       0.020719805627       0.563814574890       54399.84200743
 Vibr. corr.:          0.000117525427       0.003198029445         308.56296433
 Total:                0.026062576052       0.709198749334       68427.28378055


 ENTROPY                  AU/K                EV/K                    J/(MOL*K)
 Translational:        0.000059999637       0.001632673115         157.52902355
 Rotational:           0.000018425954       0.000501395703          48.37733576
 Vibrational:          0.000000264281       0.000007191446           0.69386915
 Total:                0.000078689872       0.002141260264         206.60022859

 HEAT CAPACITY            mAU/K               mEV/K                   J/(MOL*K)
 Translational:        0.004750222725       0.129260131817          12.47170800
 Rotational:           0.004750222725       0.129260131817          12.47170800
 Vibrational:          0.000920310205       0.025042913830           2.41627410
 Total:                0.010420755656       0.283563177463          27.35969012


 *******************************************************************************

 THERMODYNAMIC FUNCTIONS TAKING INTO ACCOUNT MOLECULAR
         ROTATIONAL, TRANSLATIONAL AND VIBRATIONAL CONTRIBUTIONS

 AT (T =  550.00 K, P =   0.10132500E+00 MPA):

                          AU/CELL             EV/CELL                 KJ/MOL
 ET            :       0.005342770425       0.145384174444          14.02744177
 PV            :       0.001741748333       0.047395381666           4.57295960
 TS            :       0.043279429342       1.177693145165         113.63012572
 ET+PV-TS      :      -0.036194910585      -0.984913589056         -95.02972435
 EL+E0+ET+PV-TS:     -76.381944516256   -2078.458377069359     -200540.76706611

 OTHER THERMODYNAMIC FUNCTIONS:

                      mHARTREE/(CELL*K)     mEV/(CELL*K)              J/(MOL*K)
 ENTROPY       :       0.078689871531       2.141260263937         206.60022859
 HEAT CAPACITY :       0.010420755656       0.283563177463          27.35969012

 *******************************************************************************

 ---------------------
 -- THERMOCHEMISTRY --
 ---------------------

 Temperature  600.00 K, Pressure  0.10132500E+00 MPA
 Rotational symmetry number:   3
 Moments of inertia (a.u.) and Rotational temperatures (K)
 with respect to principal axes:
                          1                   2                     3
 Moments --            2.271393048958       6.525554618535       4.254161569577
 Temperatures --      38.132465176609      13.273019904815      20.359785336123

 THERMAL ENERGY           AU                  EV                      J/MOL
 Translational:        0.002850133635       0.077556079090        7483.02480000
 Rotational:           0.002850133635       0.077556079090        7483.02480000
 E0(Vibrational)       0.020719805627       0.563814574890       54399.84200743
 Vibr. corr.:          0.000168784526       0.004592860455         443.14371113
 Total:                0.026588857424       0.723519593525       69809.03532815


 ENTROPY                  AU/K                EV/K                    J/(MOL*K)
 Translational:        0.000060688509       0.001651418285         159.33765769
 Rotational:           0.000018839278       0.000512642805          49.46251625
 Vibrational:          0.000000353350       0.000009615154           0.92772144
 Total:                0.000079881137       0.002173676244         209.72789552

 HEAT CAPACITY            mAU/K               mEV/K                   J/(MOL*K)
 Translational:        0.004750222725       0.129260131817          12.47170800
 Rotational:           0.004750222725       0.129260131817          12.47170800
 Vibrational:          0.001130906673       0.030773535073           2.96919505
 Total:                0.010631352124       0.289293798706          27.91261107


 *******************************************************************************

 THERMODYNAMIC FUNCTIONS TAKING INTO ACCOUNT MOLECULAR
         ROTATIONAL, TRANSLATIONAL AND VIBRATIONAL CONTRIBUTIONS

 AT (T =  600.00 K, P =   0.10132500E+00 MPA):

                          AU/CELL             EV/CELL                 KJ/MOL
 ET            :       0.005869051797       0.159705018635          15.40919332
 PV            :       0.001900089090       0.051704052727           4.98868320
 TS            :       0.047928682173       1.304205746463         125.83673731
 ET+PV-TS      :      -0.040159541286      -1.092796675102        -105.43886079
 EL+E0+ET+PV-TS:     -76.385909146957   -2078.566260155405     -200551.17620255

 OTHER THERMODYNAMIC FUNCTIONS:

                      mHARTREE/(CELL*K)     mEV/(CELL*K)              J/(MOL*K)
 ENTROPY       :       0.079881136955       2.173676244105         209.72789552
 HEAT CAPACITY :       0.010631352124       0.289293798706          27.91261107

 *******************************************************************************

 ---------------------
 -- THERMOCHEMISTRY --
 ---------------------

 Temperature  650.00 K, Pressure  0.10132500E+00 MPA
 Rotational symmetry number:   3
 Moments of inertia (a.u.) and Rotational temperatures (K)
 with respect to principal axes:
                          1                   2                     3
 Moments --            2.271393048958       6.525554618535       4.254161569577
 Temperatures --      38.132465176609      13.273019904815      20.359785336123

 THERMAL ENERGY           AU                  EV                      J/MOL
 Translational:        0.003087644772       0.084019085681        8106.61020000
 Rotational:           0.003087644772       0.084019085681        8106.61020000
 E0(Vibrational)       0.020719805627       0.563814574890       54399.84200743
 Vibr. corr.:          0.000230690211       0.006277399786         605.67706441
 Total:                0.027125785381       0.738130146038       71218.73948223


 ENTROPY                  AU/K                EV/K                    J/(MOL*K)
 Translational:        0.000061322210       0.001668662170         161.00143982
 Rotational:           0.000019219498       0.000522989136          50.46078553
 Vibrational:          0.000000452338       0.000012308732           1.18761218
 Total:                0.000080994046       0.002203960037         212.64983766

 HEAT CAPACITY            mAU/K               mEV/K                   J/(MOL*K)
 Translational:        0.004750222725       0.129260131817          12.47170800
 Rotational:           0.004750222725       0.129260131817          12.47170800
 Vibrational:          0.001345987506       0.036626182089           3.53388970
 Total:                0.010846432957       0.295146445722          28.47730572


 *******************************************************************************

 THERMODYNAMIC FUNCTIONS TAKING INTO ACCOUNT MOLECULAR
         ROTATIONAL, TRANSLATIONAL AND VIBRATIONAL CONTRIBUTIONS

 AT (T =  650.00 K, P =   0.10132500E+00 MPA):

                          AU/CELL             EV/CELL                 KJ/MOL
 ET            :       0.006405979754       0.174315571148          16.81889747
 PV            :       0.002058429848       0.056012723787           5.40440680
 TS            :       0.052646129864       1.432574024268         138.22239448
 ET+PV-TS      :      -0.044181720262      -1.202245729332        -115.99909020
 EL+E0+ET+PV-TS:     -76.389931325933   -2078.675709209636     -200561.73643196

 OTHER THERMODYNAMIC FUNCTIONS:

                      mHARTREE/(CELL*K)     mEV/(CELL*K)              J/(MOL*K)
 ENTROPY       :       0.080994045945       2.203960037335         212.64983766
 HEAT CAPACITY :       0.010846432957       0.295146445722          28.47730572

 *******************************************************************************

 ---------------------
 -- THERMOCHEMISTRY --
 ---------------------

 Temperature  700.00 K, Pressure  0.10132500E+00 MPA
 Rotational symmetry number:   3
 Moments of inertia (a.u.) and Rotational temperatures (K)
 with respect to principal axes:
                          1                   2                     3
 Moments --            2.271393048958       6.525554618535       4.254161569577
 Temperatures --      38.132465176609      13.273019904815      20.359785336123

 THERMAL ENERGY           AU                  EV                      J/MOL
 Translational:        0.003325155908       0.090482092272        8730.19560000
 Rotational:           0.003325155908       0.090482092272        8730.19560000
 E0(Vibrational)       0.020719805627       0.563814574890       54399.84200743
 Vibr. corr.:          0.000303445966       0.008257184517         796.69727094
 Total:                0.027673563408       0.753035943951       72656.93048957


 ENTROPY                  AU/K                EV/K                    J/(MOL*K)
 Translational:        0.000061908926       0.001684627514         162.54186147
 Rotational:           0.000019571528       0.000532568342          51.38503852
 Vibrational:          0.000000560073       0.000015240363           1.47047163
 Total:                0.000082040526       0.002232436219         215.39737176

 HEAT CAPACITY            mAU/K               mEV/K                   J/(MOL*K)
 Translational:        0.004750222725       0.129260131817          12.47170800
 Rotational:           0.004750222725       0.129260131817          12.47170800
 Vibrational:          0.001564841063       0.042581490125           4.10848963
 Total:                0.011065286514       0.301101753758          29.05190565


 *******************************************************************************

 THERMODYNAMIC FUNCTIONS TAKING INTO ACCOUNT MOLECULAR
         ROTATIONAL, TRANSLATIONAL AND VIBRATIONAL CONTRIBUTIONS

 AT (T =  700.00 K, P =   0.10132500E+00 MPA):

                          AU/CELL             EV/CELL                 KJ/MOL
 ET            :       0.006953757781       0.189221369060          18.25708848
 PV            :       0.002216770605       0.060321394848           5.82013040
 TS            :       0.057428368493       1.562705353108         150.77816023
 ET+PV-TS      :      -0.048257840107      -1.313162589200        -126.70094134
 EL+E0+ET+PV-TS:     -76.394007445777   -2078.786626069504     -200572.43828311

 OTHER THERMODYNAMIC FUNCTIONS:

                      mHARTREE/(CELL*K)     mEV/(CELL*K)              J/(MOL*K)
 ENTROPY       :       0.082040526419       2.232436218726         215.39737176
 HEAT CAPACITY :       0.011065286514       0.301101753758          29.05190565

 *******************************************************************************

 ---------------------
 -- THERMOCHEMISTRY --
 ---------------------

 Temperature  750.00 K, Pressure  0.10132500E+00 MPA
 Rotational symmetry number:   3
 Moments of inertia (a.u.) and Rotational temperatures (K)
 with respect to principal axes:
                          1                   2                     3
 Moments --            2.271393048958       6.525554618535       4.254161569577
 Temperatures --      38.132465176609      13.273019904815      20.359785336123

 THERMAL ENERGY           AU                  EV                      J/MOL
 Translational:        0.003562667044       0.096945098863        9353.78100000
 Rotational:           0.003562667044       0.096945098863        9353.78100000
 E0(Vibrational)       0.020719805627       0.563814574890       54399.84200743
 Vibr. corr.:          0.000387231783       0.010537112508        1016.67690257
 Total:                0.028232371498       0.768241885123       74124.08092200


 ENTROPY                  AU/K                EV/K                    J/(MOL*K)
 Translational:        0.000062455145       0.001699490893         163.97595972
 Rotational:           0.000019899259       0.000541486370          52.24549746
 Vibrational:          0.000000675597       0.000018383939           1.77378067
 Total:                0.000083030001       0.002259361202         217.99523799

 HEAT CAPACITY            mAU/K               mEV/K                   J/(MOL*K)
 Translational:        0.004750222725       0.129260131817          12.47170800
 Rotational:           0.004750222725       0.129260131817          12.47170800
 Vibrational:          0.001787139754       0.048630545038           4.69213476
 Total:                0.011287585205       0.307150808671          29.63555078


 *******************************************************************************

 THERMODYNAMIC FUNCTIONS TAKING INTO ACCOUNT MOLECULAR
         ROTATIONAL, TRANSLATIONAL AND VIBRATIONAL CONTRIBUTIONS

 AT (T =  750.00 K, P =   0.10132500E+00 MPA):

                          AU/CELL             EV/CELL                 KJ/MOL
 ET            :       0.007512565871       0.204427310233          19.72423891
 PV            :       0.002375111363       0.064630065908           6.23585400
 TS            :       0.062272501060       1.694520901608         163.49642849
 ET+PV-TS      :      -0.052384823826      -1.425463525467        -137.53633557
 EL+E0+ET+PV-TS:     -76.398134429497   -2078.898927005771     -200583.27367733

 OTHER THERMODYNAMIC FUNCTIONS:

                      mHARTREE/(CELL*K)     mEV/(CELL*K)              J/(MOL*K)
 ENTROPY       :       0.083030001413       2.259361202144         217.99523799
 HEAT CAPACITY :       0.011287585205       0.307150808671          29.63555078

 *******************************************************************************
 TTTTTTTTTTTTTTTTTTTTTTTTTTTTTT END         TELAPSE       34.15 TCPU       34.14
 EEEEEEEEEE TERMINATION  DATE 21 01 2018 TIME 15:58:10.7
Sun 21 Jan 15:58:10 GMT 2018
total 1684
-rw-r--r-- 1 andy users   2285 Jan 21 15:57 FORCES.DAT
-rw-r--r-- 1 andy users   4640 Jan 21 15:58 fort.10
-rw-r--r-- 1 andy users   4000 Jan 21 15:58 fort.11
-rw-r--r-- 1 andy users   7188 Jan 21 15:58 fort.12
-rw-r--r-- 1 andy users   7208 Jan 21 15:57 fort.13
-rw-r--r-- 1 andy users    312 Jan 21 15:58 fort.19
-rw-r--r-- 1 andy users  19204 Jan 21 15:57 fort.20
-rw-r--r-- 1 andy users      0 Jan 21 15:57 fort.28
-rw-r--r-- 1 andy users      0 Jan 21 15:57 fort.29
-rw-r--r-- 1 andy users   1623 Jan 21 15:57 fort.33
-rw-r--r-- 1 andy users   1351 Jan 21 15:57 fort.34
-rw-r--r-- 1 andy users   1360 Jan 21 15:58 fort.61
-rw-r--r-- 1 andy users   1344 Jan 21 15:58 fort.62
-rw-r--r-- 1 andy users    216 Jan 21 15:58 fort.8
-rw-r--r-- 1 andy users  19204 Jan 21 15:57 fort.9
-rw-r--r-- 1 andy users   7216 Jan 21 15:58 fort.95
-rw-r--r-- 1 andy users  46358 Jan 21 15:57 fort.98
-rw-r--r-- 1 andy users 662961 Jan 21 15:58 FREQINFO.DAT
-rw-r--r-- 1 andy users   1722 Jan 21 15:58 HESSFREQ.DAT
-rw-r--r-- 1 andy users     85 Jan 21 15:57 HESSOPT.DAT
-rw-r--r-- 1 andy users      0 Jan 21 15:57 MULLIKEN.DAT
-rw-r--r-- 1 andy users   1351 Jan 21 15:57 opta001
-rw-r--r-- 1 andy users   1351 Jan 21 15:57 opta002
-rw-r--r-- 1 andy users   1351 Jan 21 15:57 opta003
-rw-r--r-- 1 andy users   1351 Jan 21 15:57 opta004
-rw-r--r-- 1 andy users   1351 Jan 21 15:57 opta005
-rw-r--r-- 1 andy users 657670 Jan 21 15:57 OPTINFO.DAT
-rw-r--r-- 1 andy users 213657 Jan 21 15:58 SCFOUT.LOG
wave function binary file /local/andy/water_opt_molecule_tutorial_21_1_2018/water_opt_molecule.f9
Sun 21 Jan 15:58:10 GMT 2018
file fort.98 saved as /local/andy/water_opt_molecule_tutorial_21_1_2018/water_opt_molecule.f98
file SCFOUT.LOG saved as /local/andy/water_opt_molecule_tutorial_21_1_2018/water_opt_molecule.SCFLOG
file fort.20 saved as /local/andy/water_opt_molecule_tutorial_21_1_2018/water_opt_molecule.f20
file fort.33 saved as /local/andy/water_opt_molecule_tutorial_21_1_2018/water_opt_molecule.xyz
geometry input file fort.34 saved as /local/andy/water_opt_molecule_tutorial_21_1_2018/water_opt_molecule.gui
file optaxxx saved as /local/andy/water_opt_molecule_tutorial_21_1_2018/water_opt_molecule.optstory/opta001 /local/andy/water_opt_molecule_tutorial_21_1_2018/water_opt_molecule.optstory/opta002 /local/andy/water_opt_molecule_tutorial_21_1_2018/water_opt_molecule.optstory/opta003 /local/andy/water_opt_molecule_tutorial_21_1_2018/water_opt_molecule.optstory/opta004 /local/andy/water_opt_molecule_tutorial_21_1_2018/water_opt_molecule.optstory/opta005
file OPTINFO.DAT saved as /local/andy/water_opt_molecule_tutorial_21_1_2018/water_opt_molecule.optinfo
file FREQINFO.DAT saved as /local/andy/water_opt_molecule_tutorial_21_1_2018/water_opt_molecule.freqinfo
/local/tmp/andy/water_opt_molecule_23391 removed
