date Tue 5 Dec 19:24:18 GMT 2017
hostname nhpc16
system Linux nhpc16 4.4.74-18.20-default #1 SMP Fri Jun 30 19:01:19 UTC 2017 (b5079b8) x86_64 x86_64 x86_64 GNU/Linux
user andy
executable in /prog/x86_64/crystal/CRYSTAL14/alessandro_1.0.3_mod/bin/Linux-gfortran/intel___gfortran__4.8.5
temporary directory /local/tmp/andy/water_opt_18946
output in /local/andy/tmp/water_opt.out
input data /local/andy/tmp/water_opt.d12
Water
MOLECULE
15
2
8	0.000000000	0.000000000	0.369372944
1	-0.783975899	0.000000000	-0.184686472
FREQCALC
PREOPTGEOM
ENDOPTGEOM
NUMDERIV
2
TEMPERAT
15 50 750
ENDFREQ
ENDG
8 2
1 0 3 2. 0.
1 1 3 6. 0.
1 1
1 0 3 1. 0.
99 0
ENDBS
DFT
PBESOLXC
END
TOLINTEG
8 8 8 8 16
MAXCYCLE
100
TOLDEE
8
FMIXING
30
PPAN
END
END

         
 *******************************************************************************
 *                                                                             *
 *                               CRYSTAL14                                     *
 *                      public : 1.0.3 - Sep 1st, 2014                         *
 *                       HTTP://WWW.CRYSTAL.UNITO.IT                           *
 *                                                                             *
 *                              MAIN AUTHORS                                   *
 *                                                                             *
 *  R. DOVESI(1,11), V.R. SAUNDERS(2), C. ROETTI(1,11), R. ORLANDO(1,11),      *
 *  C.M. ZICOVICH-WILSON(1,3), F. PASCALE(4), B. CIVALLERI(1,11),              *
 *  K. DOLL(5), N.M. HARRISON(2,6), I. J. BUSH(7), Ph. D'ARCO(8),              *
 *  M. LLUNELL(9), M. CAUSA'(10), Y. NOEL(8)                                   *
 *                                                                             *
 *        CONTRIBUTIONS TO THE CURRENT RELEASE HAVE BEEN GIVEN BY              *
 *                                                                             *
 *  L. MASCHIO(1,11), S. CASASSA(1,11), A. ERBA(1,11), M. FERRABONE(1,11),     *
 *  M. DE LA PIERRE(1,11), M. FERRERO(1,11), V. LACIVITA(1,11),                *
 *  J. BAIMA(1,11), E. ALBANESE(1,11), M.F. PEINTINGER(12), R. BAST(13),       *
 *  M. RERAT(14), B. KIRTMAN(15), R. DEMICHELIS(1,16)                          *
 *                                                                             *
 * (1) THEORETICAL CHEMISTRY GROUP - UNIVERSITA' DI TORINO - TORINO (ITALY)    *
 *     http://www.crystal.unito.it                                             *
 * (2) COMPUTATIONAL SCIENCE & ENGINEERING DEPARTMENT - STFC DARESBURY (UK)    *
 *     http://www.stfc.ac.uk/CSE/randd/cmg/CRYSTAL/25806.aspx                  *
 * (3) UNIVERSIDAD AUTONOMA DEL ESTADO DE MORELOS - CUERNAVACA (MEXICO)        *
 * (4) UNIVERSITE' DE LORRAINE - NANCY (FRANCE)                                *
 * (5) UNIVERSITAET ULM - ULM (GERMANY); (6) IMPERIAL COLLEGE - LONDON (UK)    *
 * (7) NAG - OXFORD (UK); (8) UPMC - SORBONNE UNIVERSITES - PARIS (FRANCE)     *
 * (9) UNIVERSIDAD DE BARCELONA - BARCELONA (SPAIN)                            *
 *(10) UNIVERSITA' DI NAPOLI "FEDERICO II" - NAPOLI (ITALY)                    *
 *(11) NIS - NANOSTRUCTURED INTERFACES AND SURFACES - TORINO (ITALY)           *
 *(12) MPI FUER CHEMISCHE ENERGIEKONVERSION - MUELHEIM AN DER RUHR (GERMANY)   *
 *(13) UNIVERSITY OF STOCKHOLM - STOCKHOLM (SWEDEN)                            *
 *(14) UNIVERSITE' DE PAU ET DES PAYS DE L'ADOUR - PAU (FRANCE)                *
 *(15) UNIVERSITY OF CALIFORNIA SANTA BARBARA - SANTA BARBARA (USA)            *
 *(16) CURTIN UNIVERSITY - PERTH (AUSTRALIA)                                   *
 *                                                                             *
 ********************************************************************************
 EEEEEEEEEE STARTING  DATE 05 12 2017 TIME 19:24:18.4
 Water                                                                           

 MOLECULAR CALCULATION
 POINT  GROUP  N. 15                  :  MM2    OR  C2V  
 CORRESPONDING SPACE GROUP            :  P M M 2         


 NUMBER OF IRREDUCIBLE ATOMS IN THE CONVENTIONAL CELL:    2

 INPUT COORDINATES

 ATOM AT. N.              COORDINATES
   1   8     0.000000000000E+00  0.000000000000E+00  3.693729440000E-01
   2   1    -7.839758990000E-01  0.000000000000E+00 -1.846864720000E-01

 COORDINATES OF THE EQUIVALENT ATOMS (ANGSTROMS)

 N. ATOM EQUIV AT. N.          X                  Y                  Z

   1   1   1    8 O     0.00000000000E+00  0.00000000000E+00  3.69372944000E-01

   2   2   1    1 H    -7.83975899000E-01  0.00000000000E+00 -1.84686472000E-01
   3   2   2    1 H     7.83975899000E-01  0.00000000000E+00 -1.84686472000E-01

 NUMBER OF SYMMETRY OPERATORS         :    4
 *******************************************************************************
 * GEOMETRY EDITING - INPUT COORDINATES ARE GIVEN IN ANGSTROM         
 *******************************************************************************

 GEOMETRY NOW FULLY CONSISTENT WITH THE GROUP

 FRQFRQFRQFRQFRQFRQFRQFRQFRQFRQFRQFRQFRQFRQFRQFRQFRQFRQFRQFRQFRQFRQFRQFRQFRQFRQ

                       FREQUENCY CALCULATION

 OPTIMIZATION PERFORMED BEFORE FREQUENCIES CALCULATION
 *******************************************************************************
 INFORMATION **** NEW DEFAULT **** FINALRUN 4 FOR GEOMETRY OPTIMIZATIONS
 INFORMATION **** NEW DEFAULT **** OPTGEOM OPTIMIZES BOTH ATOMIC COORDINATES AND CELL PARAMETERS
 INFORMATION **** NEW DEFAULT **** TOL. ON ENERGY TO REDEFINE REF. GEOMETRY: 10**-3

 IMPORTANT INFORMATION:
 THE COORDINATE SYSTEM ADOPTED IN THE OPTIMIZATION IS NOT IN
 GENERAL HOMOGENEOUS UNITS. FOR THIS REASON THE GRADIENT AND 
 HESSIAN MATRIX IN TERMS OF THIS SYSTEM ARE GIVEN WITHOUT
 UNITS. FOR MORE DETAILS SEE THE MANUAL.

 *******************************************************************************
 ATOMIC POSITIONS OPTIMIZATION CONTROL

 INITIAL TRUST RADIUS         0.50000 MAXIMUM TRUST RADIUS               0.50000
 MAXIMUM GRADIENT COMPONENT   0.00005 MAXIMUM DISPLACEMENT COMPONENT     0.00018
 R.M.S. OF GRADIENT COMPONENT 0.00003 R.M.S. OF DISPLACEMENT COMPONENTS  0.00012
 THRESHOLD ON ENERGY CHANGE 0.100E-06 EXTRAPOLATING POLYNOMIAL ORDER           2
 MAXIMUM ALLOWED NUMBER OF STEPS  100 SORTING OF ENERGY POINTS:               NO
 ANALYTICAL  GRADIENT                 HESSIAN UPDATING                      BFGS
 STEP SIZE NUMERICAL GRADIENT 0.00100
 INITIAL HESSIAN MATRIX: SCHLEGEL MODEL 2
 *******************************************************************************

 INFORMATION **** INPFREQ **** NUMERICAL DERIVATIVE OF GRADIENT OPTION           2
 TEMPERATURE FOR THERMO ANALYSIS   50.00 KELVIN -  750.00 KELVIN (POINTS 15)
 INFORMATION **** INPFREQ **** NEW DEFAULT -                     IMPOSING ECKART CONDITIONS TO THE HESSIAN

 GEOMETRY FOR WAVE FUNCTION - DIMENSIONALITY OF THE SYSTEM    0
 (NON PERIODIC DIRECTION: LATTICE PARAMETER FORMALLY SET TO 500)
 *******************************************************************************
 ATOMS IN THE ASYMMETRIC UNIT    2 - ATOMS IN THE UNIT CELL:    3
     ATOM          X(ANGSTROM)         Y(ANGSTROM)         Z(ANGSTROM)
 *******************************************************************************
   1 T   8 O     0.000000000000E+00  0.000000000000E+00  3.693729440000E-01
   2 T   1 H    -7.839758990000E-01  0.000000000000E+00 -1.846864720000E-01
   3 F   1 H     7.839758990000E-01  0.000000000000E+00 -1.846864720000E-01

 T = ATOM BELONGING TO THE ASYMMETRIC UNIT

 ****    4 SYMMOPS - TRANSLATORS IN FRACTIONAL UNITS
 **** MATRICES AND TRANSLATORS IN THE CRYSTALLOGRAPHIC REFERENCE FRAME
   V INV                    ROTATION MATRICES                   TRANSLATORS
   1   1  1.00  0.00  0.00  0.00  1.00  0.00  0.00  0.00  1.00  0.00  0.00  0.00
   2   2 -1.00  0.00  0.00  0.00 -1.00  0.00  0.00  0.00  1.00  0.00  0.00  0.00
   3   3 -1.00  0.00  0.00  0.00  1.00  0.00  0.00  0.00  1.00  0.00  0.00  0.00
   4   4  1.00  0.00  0.00  0.00 -1.00  0.00  0.00  0.00  1.00  0.00  0.00  0.00

 *******************************************************************************
 LOCAL ATOMIC FUNCTIONS BASIS SET
 *******************************************************************************
   ATOM   X(AU)   Y(AU)   Z(AU)  N. TYPE  EXPONENT  S COEF   P COEF   D/F/G COEF
 *******************************************************************************
   1 O    0.000   0.000   0.698
                                  1 S  
                                         1.307E+02 1.543E-01 0.000E+00 0.000E+00
                                         2.381E+01 5.353E-01 0.000E+00 0.000E+00
                                         6.444E+00 4.446E-01 0.000E+00 0.000E+00
                             2-   5 SP 
                                         5.033E+00-9.997E-02 1.559E-01 0.000E+00
                                         1.170E+00 3.995E-01 6.077E-01 0.000E+00
                                         3.804E-01 7.001E-01 3.920E-01 0.000E+00
   2 H   -1.481   0.000  -0.349
                                  6 S  
                                         3.425E+00 1.543E-01 0.000E+00 0.000E+00
                                         6.239E-01 5.353E-01 0.000E+00 0.000E+00
                                         1.689E-01 4.446E-01 0.000E+00 0.000E+00
   3 H    1.481   0.000  -0.349
 INFORMATION **** SET_MPP **** PCRYSTAL CALCULATION
 INFORMATION **** READM2 **** NEW DEFAULT: FOCK/KS MATRIX MIXING SET TO 30 %
 INFORMATION **** READM2 **** NEW DEFAULT: FULL DIRECT SCF MODE
 INFORMATION **** READM2 **** NEW DEFAULT: COULOMB BIPOLAR BUFFER SET TO 32 Mb
 INFORMATION **** READM2 **** NEW DEFAULT: EXCHANGE BIPOLAR BUFFER SET TO 32 Mb

 *******************************************************************************
 NEW DEFAULT: DFT INTEGRATION GRID INCREASED TO XLGRID
 NEW DEFAULT: LEVEL SHIFTER 6 0
 IF THE SYSTEM IS A METAL USE KEYWORD NOSHIFT
 *******************************************************************************

 INFORMATION **** TOLINTEG **** COULOMB AND EXCHANGE SERIES TOLERANCES MODIFIED
 INFORMATION **** MAXCYCLE **** MAX NUMBER OF SCF CYCLES SET TO         100
 INFORMATION **** TOLDEE **** SCF TOL ON TOTAL ENERGY SET TO           8
 INFORMATION **** READM2 ****  FREQCALC - MULLIKEN POPULATION ANALYSIS NOT PERFORMED
 WARNING **** READM2 **** PROBABLE LOSS IN FREQCALC ACCURACY; SCF TOL LT          10
 *******************************************************************************
 N. OF ATOMS PER CELL         3  COULOMB OVERLAP TOL         (T1) 10**   -8
 NUMBER OF SHELLS             4  COULOMB PENETRATION TOL     (T2) 10**   -8
 NUMBER OF AO                 7  EXCHANGE OVERLAP TOL        (T3) 10**   20
 N. OF ELECTRONS PER CELL    10  EXCHANGE PSEUDO OVP (F(G))  (T4) 10**   20
 CORE ELECTRONS PER CELL      2  EXCHANGE PSEUDO OVP (P(G))  (T5) 10**   20
 N. OF SYMMETRY OPERATORS     4  POLE ORDER IN MONO ZONE                  4
 *******************************************************************************
 TYPE OF CALCULATION :  RESTRICTED CLOSED SHELL
 KOHN-SHAM HAMILTONIAN

 (EXCHANGE)[CORRELATION] FUNCTIONAL:(PBEsol GGA)[PBEsol]

 EIGENVALUE LEVEL SHIFTING OF  0.600 HARTREE

 CAPPA:IS1  1;IS2  1;IS3  1; K PTS MONK NET   1; SYMMOPS:K SPACE   8;G SPACE   4

 *******************************************************************************
 MAX NUMBER OF SCF CYCLES     100  CONVERGENCE ON DELTAP        10**-18
 WEIGHT OF F(I) IN F(I+1)      30% CONVERGENCE ON ENERGY        10**- 8
 EIGENVALUE LEVEL SHIFTING OF  0.600 HARTREE

 DISK SPACE FOR EIGENVECTORS (FTN 10)          49 REALS

 SYMMETRY ADAPTION OF THE BLOCH FUNCTIONS ENABLED

 MATRIX SIZE: P(G)      49, F(G)      28, P(G) IRR      28, F(G) IRR      28
 MAX G-VECTOR INDEX FOR 1- AND 2-ELECTRON INTEGRALS   1

 TTTTTTTTTTTTTTTTTTTTTTTTTTTTTT INPUT       TELAPSE        0.00 TCPU        0.00

 NEIGHBORS OF THE NON-EQUIVALENT ATOMS

 N = NUMBER OF NEIGHBORS AT DISTANCE R
    ATOM  N     R/ANG      R/AU   NEIGHBORS (ATOM LABELS AND CELL INDICES)
   1 O    2     0.9600     1.8141    2 H    0 0 0    3 H    0 0 0

   2 H    1     0.9600     1.8141    1 O    0 0 0
   2 H    1     1.5680     2.9630    3 H    0 0 0


 SYMMETRY ALLOWED INTERNAL DEGREE(S) OF FREEDOM:   2
 TTTTTTTTTTTTTTTTTTTTTTTTTTTTTT SYMM        TELAPSE        0.00 TCPU        0.00
 TTTTTTTTTTTTTTTTTTTTTTTTTTTTTT INT_SCREEN  TELAPSE        0.00 TCPU        0.00
 *******************************************************************************
 COORDINATE OPTIMIZATION - POINT    1
 INFORMATION **** EXCBUF **** EXCH. BIPO BUFFER: WORDS USED =           0

 DFT PARAMETERS

     ATOM       ELECTRONS   NET CHARGE   R(ANGSTROM)
   1   8  O       8.0000      0.0000     0.74000000
   2   1  H       1.0000      0.0000     1.11000000

 SIZE OF GRID=      27913
 TTTTTTTTTTTTTTTTTTTTTTTTTTTTTT MAKE_GRID2  TELAPSE        0.02 TCPU        0.02
 BECKE WEIGHT FUNCTION
 RADSAFE =     2.00
 TOLERANCES - DENSITY:10**- 6; POTENTIAL:10**- 9; GRID WGT:10**-14

 RADIAL INTEGRATION  - INTERVALS (POINTS,UPPER LIMIT):            1( 75,  4.0*R)

 ANGULAR INTEGRATION - INTERVALS (ACCURACY LEVEL [N. POINTS] UPPER LIMIT):
  1(  4[  86]   0.2)  2(  8[ 194]   0.5)  3( 12[ 350]   0.9)  4( 16[ 974]   3.5)
  5( 12[ 350]9999.0)
 TTTTTTTTTTTTTTTTTTTTTTTTTTTTTT INT_CALC    TELAPSE        0.02 TCPU        0.02

 *******************************************************************************
 Water                                                                           
 CRYSTAL - SCF - TYPE OF CALCULATION :  RESTRICTED CLOSED SHELL
 *******************************************************************************

 CAPPA:IS1  1;IS2  1;IS3  1; K PTS MONK NET   1; SYMMOPS:K SPACE   8;G SPACE   4

 TTTTTTTTTTTTTTTTTTTTTTTTTTTTTT SDIK        TELAPSE        0.02 TCPU        0.02

 AAAAAAAAAAAAAAAAAAAAAAAAAAAAAAAAAAAAAAAAAAAAAAAAAAAAAAAAAAAAAAAAAAAAAAAAAAAAAAA
         ATOMIC WAVEFUNCTION(S)


 NUCLEAR CHARGE  8.0  SYMMETRY SPECIES            S    P
 N. ELECTRONS    8.0  NUMBER OF PRIMITIVE GTOS    6    3
                      NUMBER OF CONTRACTED GTOS   2    1
                      NUMBER OF CLOSED SHELLS     2    0
                      OPEN SHELL OCCUPATION       0    4

  ZNUC SCFIT  TOTAL HF ENERGY   KINETIC ENERGY   VIRIAL THEOREM ACCURACY
   8.0   1   -7.380415026E+01  7.344496710E+01 -2.004890507E+00  0.0E+00

 NUCLEAR CHARGE  1.0  SYMMETRY SPECIES            S
 N. ELECTRONS    1.0  NUMBER OF PRIMITIVE GTOS    3
                      NUMBER OF CONTRACTED GTOS   1
                      NUMBER OF CLOSED SHELLS     0
                      OPEN SHELL OCCUPATION       1

  ZNUC SCFIT  TOTAL HF ENERGY   KINETIC ENERGY   VIRIAL THEOREM ACCURACY
   1.0   1   -4.665818504E-01  7.600318799E-01 -1.613897736E+00  0.0E+00

 AAAAAAAAAAAAAAAAAAAAAAAAAAAAAAAAAAAAAAAAAAAAAAAAAAAAAAAAAAAAAAAAAAAAAAAAAAAAAAA

 TTTTTTTTTTTTTTTTTTTTTTTTTTTTTT MOQGAD      TELAPSE        0.02 TCPU        0.02
 TTTTTTTTTTTTTTTTTTTTTTTTTTTTTT SHELLX2     TELAPSE        0.03 TCPU        0.02
 TTTTTTTTTTTTTTTTTTTTTTTTTTTTTT MONMO3      TELAPSE        0.03 TCPU        0.02
 NUMERICALLY INTEGRATED DENSITY     10.0000031176
 TTTTTTTTTTTTTTTTTTTTTTTTTTTTTT NUMDFT      TELAPSE        0.06 TCPU        0.05
 CYC   0 ETOT(AU) -7.492184484515E+01 DETOT -7.49E+01 tst  0.00E+00 PX  1.00E+00
 TTTTTTTTTTTTTTTTTTTTTTTTTTTTTT FDIK        TELAPSE        0.06 TCPU        0.06
 INSULATING STATE
 TOP OF VALENCE BANDS -    BAND      5; K    1; EIG -1.6015827E-01 AU
 BOTTOM OF VIRTUAL BANDS - BAND      6; K    1; EIG  3.2964291E-01 AU
 TTTTTTTTTTTTTTTTTTTTTTTTTTTTTT PDIG        TELAPSE        0.06 TCPU        0.06
 TTTTTTTTTTTTTTTTTTTTTTTTTTTTTT MOQGAD      TELAPSE        0.06 TCPU        0.06
 TTTTTTTTTTTTTTTTTTTTTTTTTTTTTT SHELLX2     TELAPSE        0.06 TCPU        0.06
 TTTTTTTTTTTTTTTTTTTTTTTTTTTTTT MONMO3      TELAPSE        0.06 TCPU        0.06
 NUMERICALLY INTEGRATED DENSITY     10.0000041329
 TTTTTTTTTTTTTTTTTTTTTTTTTTTTTT NUMDFT      TELAPSE        0.08 TCPU        0.08
 CYC   1 ETOT(AU) -7.494260201931E+01 DETOT -2.08E-02 tst  0.00E+00 PX  1.00E+00
 TTTTTTTTTTTTTTTTTTTTTTTTTTTTTT FDIK        TELAPSE        0.11 TCPU        0.08
 INSULATING STATE
 TOP OF VALENCE BANDS -    BAND      5; K    1; EIG -3.3197730E-02 AU
 BOTTOM OF VIRTUAL BANDS - BAND      6; K    1; EIG  3.3269165E-01 AU
 TTTTTTTTTTTTTTTTTTTTTTTTTTTTTT PDIG        TELAPSE        0.11 TCPU        0.08
 TTTTTTTTTTTTTTTTTTTTTTTTTTTTTT MOQGAD      TELAPSE        0.11 TCPU        0.08
 TTTTTTTTTTTTTTTTTTTTTTTTTTTTTT SHELLX2     TELAPSE        0.11 TCPU        0.08
 TTTTTTTTTTTTTTTTTTTTTTTTTTTTTT MONMO3      TELAPSE        0.11 TCPU        0.08
 NUMERICALLY INTEGRATED DENSITY     10.0000039575
 TTTTTTTTTTTTTTTTTTTTTTTTTTTTTT NUMDFT      TELAPSE        0.13 TCPU        0.10
 CYC   2 ETOT(AU) -7.496064934395E+01 DETOT -1.80E-02 tst  6.09E-03 PX  1.25E-01
 TTTTTTTTTTTTTTTTTTTTTTTTTTTTTT FDIK        TELAPSE        0.13 TCPU        0.10
 INSULATING STATE
 TOP OF VALENCE BANDS -    BAND      5; K    1; EIG -3.5184280E-02 AU
 BOTTOM OF VIRTUAL BANDS - BAND      6; K    1; EIG  3.1956984E-01 AU
 TTTTTTTTTTTTTTTTTTTTTTTTTTTTTT PDIG        TELAPSE        0.13 TCPU        0.10
 TTTTTTTTTTTTTTTTTTTTTTTTTTTTTT MOQGAD      TELAPSE        0.13 TCPU        0.10
 TTTTTTTTTTTTTTTTTTTTTTTTTTTTTT SHELLX2     TELAPSE        0.13 TCPU        0.10
 TTTTTTTTTTTTTTTTTTTTTTTTTTTTTT MONMO3      TELAPSE        0.13 TCPU        0.10
 NUMERICALLY INTEGRATED DENSITY     10.0000038726
 TTTTTTTTTTTTTTTTTTTTTTTTTTTTTT NUMDFT      TELAPSE        0.15 TCPU        0.12
 CYC   3 ETOT(AU) -7.496233869253E+01 DETOT -1.69E-03 tst  9.49E-04 PX  4.80E-02
 TTTTTTTTTTTTTTTTTTTTTTTTTTTTTT FDIK        TELAPSE        0.15 TCPU        0.12
 INSULATING STATE
 TOP OF VALENCE BANDS -    BAND      5; K    1; EIG -5.0389756E-02 AU
 BOTTOM OF VIRTUAL BANDS - BAND      6; K    1; EIG  3.1037409E-01 AU
 TTTTTTTTTTTTTTTTTTTTTTTTTTTTTT PDIG        TELAPSE        0.15 TCPU        0.12
 TTTTTTTTTTTTTTTTTTTTTTTTTTTTTT MOQGAD      TELAPSE        0.15 TCPU        0.12
 TTTTTTTTTTTTTTTTTTTTTTTTTTTTTT SHELLX2     TELAPSE        0.15 TCPU        0.12
 TTTTTTTTTTTTTTTTTTTTTTTTTTTTTT MONMO3      TELAPSE        0.15 TCPU        0.12
 NUMERICALLY INTEGRATED DENSITY     10.0000038561
 TTTTTTTTTTTTTTTTTTTTTTTTTTTTTT NUMDFT      TELAPSE        0.17 TCPU        0.14
 CYC   4 ETOT(AU) -7.496252013094E+01 DETOT -1.81E-04 tst  5.87E-05 PX  2.34E-02
 TTTTTTTTTTTTTTTTTTTTTTTTTTTTTT FDIK        TELAPSE        0.17 TCPU        0.14
 INSULATING STATE
 TOP OF VALENCE BANDS -    BAND      5; K    1; EIG -5.5085248E-02 AU
 BOTTOM OF VIRTUAL BANDS - BAND      6; K    1; EIG  3.0804095E-01 AU
 TTTTTTTTTTTTTTTTTTTTTTTTTTTTTT PDIG        TELAPSE        0.17 TCPU        0.14
 TTTTTTTTTTTTTTTTTTTTTTTTTTTTTT MOQGAD      TELAPSE        0.17 TCPU        0.14
 TTTTTTTTTTTTTTTTTTTTTTTTTTTTTT SHELLX2     TELAPSE        0.17 TCPU        0.14
 TTTTTTTTTTTTTTTTTTTTTTTTTTTTTT MONMO3      TELAPSE        0.17 TCPU        0.14
 NUMERICALLY INTEGRATED DENSITY     10.0000038563
 TTTTTTTTTTTTTTTTTTTTTTTTTTTTTT NUMDFT      TELAPSE        0.19 TCPU        0.16
 CYC   5 ETOT(AU) -7.496258095161E+01 DETOT -6.08E-05 tst  2.28E-05 PX  1.03E-02
 TTTTTTTTTTTTTTTTTTTTTTTTTTTTTT FDIK        TELAPSE        0.19 TCPU        0.16
 INSULATING STATE
 TOP OF VALENCE BANDS -    BAND      5; K    1; EIG -5.4732943E-02 AU
 BOTTOM OF VIRTUAL BANDS - BAND      6; K    1; EIG  3.0824676E-01 AU
 TTTTTTTTTTTTTTTTTTTTTTTTTTTTTT PDIG        TELAPSE        0.19 TCPU        0.16
 TTTTTTTTTTTTTTTTTTTTTTTTTTTTTT MOQGAD      TELAPSE        0.19 TCPU        0.16
 TTTTTTTTTTTTTTTTTTTTTTTTTTTTTT SHELLX2     TELAPSE        0.19 TCPU        0.16
 TTTTTTTTTTTTTTTTTTTTTTTTTTTTTT MONMO3      TELAPSE        0.19 TCPU        0.16
 NUMERICALLY INTEGRATED DENSITY     10.0000038562
 TTTTTTTTTTTTTTTTTTTTTTTTTTTTTT NUMDFT      TELAPSE        0.21 TCPU        0.18
 CYC   6 ETOT(AU) -7.496258665844E+01 DETOT -5.71E-06 tst  2.24E-06 PX  3.67E-03
 TTTTTTTTTTTTTTTTTTTTTTTTTTTTTT FDIK        TELAPSE        0.21 TCPU        0.18
 INSULATING STATE
 TOP OF VALENCE BANDS -    BAND      5; K    1; EIG -5.4006038E-02 AU
 BOTTOM OF VIRTUAL BANDS - BAND      6; K    1; EIG  3.0860975E-01 AU
 TTTTTTTTTTTTTTTTTTTTTTTTTTTTTT PDIG        TELAPSE        0.21 TCPU        0.18
 TTTTTTTTTTTTTTTTTTTTTTTTTTTTTT MOQGAD      TELAPSE        0.21 TCPU        0.18
 TTTTTTTTTTTTTTTTTTTTTTTTTTTTTT SHELLX2     TELAPSE        0.21 TCPU        0.18
 TTTTTTTTTTTTTTTTTTTTTTTTTTTTTT MONMO3      TELAPSE        0.21 TCPU        0.18
 NUMERICALLY INTEGRATED DENSITY     10.0000038551
 TTTTTTTTTTTTTTTTTTTTTTTTTTTTTT NUMDFT      TELAPSE        0.23 TCPU        0.20
 CYC   7 ETOT(AU) -7.496258738624E+01 DETOT -7.28E-07 tst  4.69E-07 PX  1.29E-03
 TTTTTTTTTTTTTTTTTTTTTTTTTTTTTT FDIK        TELAPSE        0.23 TCPU        0.20
 INSULATING STATE
 TOP OF VALENCE BANDS -    BAND      5; K    1; EIG -5.3796550E-02 AU
 BOTTOM OF VIRTUAL BANDS - BAND      6; K    1; EIG  3.0872279E-01 AU
 TTTTTTTTTTTTTTTTTTTTTTTTTTTTTT PDIG        TELAPSE        0.23 TCPU        0.20
 TTTTTTTTTTTTTTTTTTTTTTTTTTTTTT MOQGAD      TELAPSE        0.23 TCPU        0.21
 TTTTTTTTTTTTTTTTTTTTTTTTTTTTTT SHELLX2     TELAPSE        0.23 TCPU        0.21
 TTTTTTTTTTTTTTTTTTTTTTTTTTTTTT MONMO3      TELAPSE        0.23 TCPU        0.21
 NUMERICALLY INTEGRATED DENSITY     10.0000038543
 TTTTTTTTTTTTTTTTTTTTTTTTTTTTTT NUMDFT      TELAPSE        0.26 TCPU        0.23
 CYC   8 ETOT(AU) -7.496258762919E+01 DETOT -2.43E-07 tst  1.87E-07 PX  6.24E-04
 TTTTTTTTTTTTTTTTTTTTTTTTTTTTTT FDIK        TELAPSE        0.26 TCPU        0.23
 INSULATING STATE
 TOP OF VALENCE BANDS -    BAND      5; K    1; EIG -5.3816445E-02 AU
 BOTTOM OF VIRTUAL BANDS - BAND      6; K    1; EIG  3.0872303E-01 AU
 TTTTTTTTTTTTTTTTTTTTTTTTTTTTTT PDIG        TELAPSE        0.26 TCPU        0.23
 TTTTTTTTTTTTTTTTTTTTTTTTTTTTTT MOQGAD      TELAPSE        0.26 TCPU        0.23
 TTTTTTTTTTTTTTTTTTTTTTTTTTTTTT SHELLX2     TELAPSE        0.26 TCPU        0.23
 TTTTTTTTTTTTTTTTTTTTTTTTTTTTTT MONMO3      TELAPSE        0.26 TCPU        0.23
 NUMERICALLY INTEGRATED DENSITY     10.0000038539
 TTTTTTTTTTTTTTTTTTTTTTTTTTTTTT NUMDFT      TELAPSE        0.28 TCPU        0.25
 CYC   9 ETOT(AU) -7.496258768200E+01 DETOT -5.28E-08 tst  4.47E-08 PX  3.02E-04
 TTTTTTTTTTTTTTTTTTTTTTTTTTTTTT FDIK        TELAPSE        0.28 TCPU        0.25
 INSULATING STATE
 TOP OF VALENCE BANDS -    BAND      5; K    1; EIG -5.3851260E-02 AU
 BOTTOM OF VIRTUAL BANDS - BAND      6; K    1; EIG  3.0871106E-01 AU
 TTTTTTTTTTTTTTTTTTTTTTTTTTTTTT PDIG        TELAPSE        0.28 TCPU        0.25
 TTTTTTTTTTTTTTTTTTTTTTTTTTTTTT MOQGAD      TELAPSE        0.28 TCPU        0.25
 TTTTTTTTTTTTTTTTTTTTTTTTTTTTTT SHELLX2     TELAPSE        0.28 TCPU        0.25
 TTTTTTTTTTTTTTTTTTTTTTTTTTTTTT MONMO3      TELAPSE        0.28 TCPU        0.25
 NUMERICALLY INTEGRATED DENSITY     10.0000038537
 TTTTTTTTTTTTTTTTTTTTTTTTTTTTTT NUMDFT      TELAPSE        0.30 TCPU        0.27
 CYC  10 ETOT(AU) -7.496258769502E+01 DETOT -1.30E-08 tst  8.40E-09 PX  1.49E-04
 TTTTTTTTTTTTTTTTTTTTTTTTTTTTTT FDIK        TELAPSE        0.30 TCPU        0.27
 INSULATING STATE
 TOP OF VALENCE BANDS -    BAND      5; K    1; EIG -5.3862059E-02 AU
 BOTTOM OF VIRTUAL BANDS - BAND      6; K    1; EIG  3.0870723E-01 AU
 TTTTTTTTTTTTTTTTTTTTTTTTTTTTTT PDIG        TELAPSE        0.30 TCPU        0.27
 TTTTTTTTTTTTTTTTTTTTTTTTTTTTTT MOQGAD      TELAPSE        0.30 TCPU        0.27
 TTTTTTTTTTTTTTTTTTTTTTTTTTTTTT SHELLX2     TELAPSE        0.30 TCPU        0.27
 TTTTTTTTTTTTTTTTTTTTTTTTTTTTTT MONMO3      TELAPSE        0.30 TCPU        0.27
 NUMERICALLY INTEGRATED DENSITY     10.0000038537
 TTTTTTTTTTTTTTTTTTTTTTTTTTTTTT NUMDFT      TELAPSE        0.32 TCPU        0.29
 CYC  11 ETOT(AU) -7.496258769826E+01 DETOT -3.24E-09 tst  1.69E-09 PX  7.23E-05
 TTTTTTTTTTTTTTTTTTTTTTTTTTTTTT FDIK        TELAPSE        0.32 TCPU        0.29
 INSULATING STATE
 TOP OF VALENCE BANDS -    BAND      5; K    1; EIG -5.3862220E-02 AU
 BOTTOM OF VIRTUAL BANDS - BAND      6; K    1; EIG  3.0870726E-01 AU
 TTTTTTTTTTTTTTTTTTTTTTTTTTTTTT PDIG        TELAPSE        0.32 TCPU        0.29
 TTTTTTTTTTTTTTTTTTTTTTTTTTTTTT MOQGAD      TELAPSE        0.32 TCPU        0.29
 TTTTTTTTTTTTTTTTTTTTTTTTTTTTTT SHELLX2     TELAPSE        0.32 TCPU        0.29

 ::: DIPOLE MOMENT ALONG NON PERIODIC DIRECTIONS:
 ::: A.U.     (X)  0.00000E+00   (Y)  0.00000E+00   (Z)  6.48952E-01
 ::: DEBYE        -0.00000E+00       -0.00000E+00       -1.64947E+00

 ::: PSEUDO TOTAL   ENERGY                        -6.5856179439235E+01
 ::: VIRIAL COEFFICIENT                            1.0621467588009E+00
 TTTTTTTTTTTTTTTTTTTTTTTTTTTTTT MONMO3      TELAPSE        0.32 TCPU        0.29
 NUMERICALLY INTEGRATED DENSITY     10.0000038537
 TTTTTTTTTTTTTTTTTTTTTTTTTTTTTT NUMDFT      TELAPSE        0.34 TCPU        0.31
 CYC  12 ETOT(AU) -7.496258769899E+01 DETOT -7.28E-10 tst  4.16E-10 PX  7.23E-05

 == SCF ENDED - CONVERGENCE ON ENERGY      E(AU) -7.4962587698986E+01 CYCLES  12


 ENERGY EXPRESSION=HARTREE+FOCK EXCH*0.00000+(PBESOL     EXCH)*1.00000+PBESOL     CORR


 TOTAL ENERGY(DFT)(AU)( 12) -7.4962587698986E+01 DE-7.3E-10 tester 4.2E-10
 TTTTTTTTTTTTTTTTTTTTTTTTTTTTTT EDFT        TELAPSE        0.34 TCPU        0.31

 *******************************************************************************
 *                             FORCE CALCULATION                               *
 *******************************************************************************

 TTTTTTTTTTTTTTTTTTTTTTTTTTTTTT NUMDFG      TELAPSE        0.39 TCPU        0.36
 INFORMATION **** EXCPOG **** EXCH. BIPO BUFFER LENGTH (WORDS) =           0
 INFORMATION **** GENPOG **** BIPO BUFFER LENGTH (WORDS) =        1000
 TTTTTTTTTTTTTTTTTTTTTTTTTTTTTT SHELXG      TELAPSE        0.42 TCPU        0.36

 CARTESIAN FORCES IN HARTREE/BOHR (ANALYTICAL)
   ATOM                     X                   Y                   Z
   1   8             0.000000000000E+00  0.000000000000E+00  1.226463429817E-01
   2   1            -4.162995723167E-02  0.000000000000E+00 -6.132317149084E-02
   3   1             4.162995723167E-02  0.000000000000E+00 -6.132317149084E-02

 RESULTANT FORCE     0.000000000000E+00  0.000000000000E+00  1.021405182655E-14

 SYMMETRY ALLOWED FORCES (ANALYTICAL) (DIRECTION, FORCE)

    1  1.5021048E-01    2 -5.8873650E-02
 TTTTTTTTTTTTTTTTTTTTTTTTTTTTTT TOTGRA      TELAPSE        0.42 TCPU        0.36
 INFORMATION **** opta001 **** GEOMETRY OUTPUT FILE
 CLASSICAL MODEL (SCHLEGEL) USED AS INITIAL HESSIAN MATRIX
 REFERENCE GEOMETRY DEFINED

 MAX GRADIENT      0.150210  THRESHOLD              0.000045 CONVERGED NO
 RMS GRADIENT      0.114082  THRESHOLD              0.000030 CONVERGED NO

 GRADIENT NORM     0.161336  GRADIENT THRESHOLD     0.500000

 EIGENVALUES OF THE ESTIMATED HESSIAN
  0.1636      0.9654    

 INITIAL TRUST RADIUS    0.5000000000E+00

 PREDICTED ENERGY CHANGE    -0.159E-01

 INITIAL DISPLACEMENTS
  0.239055  0.070678
 TTTTTTTTTTTTTTTTTTTTTTTTTTTTTT OPTI        TELAPSE        0.42 TCPU        0.36

 OPTOPTOPTOPTOPTOPTOPTOPTOPTOPTOPTOPTOPTOPTOPTOPTOPTOPTOPTOPTOPTOPTOPTOPTOPTOPT

 STARTING GEOMETRY OPTIMIZATION - INFORMATION ON SCF MOVED TO SCFOUT.LOG
 GEOMETRY OPTIMIZATION INFORMATION STORED IN OPTINFO.DAT

 OPTOPTOPTOPTOPTOPTOPTOPTOPTOPTOPTOPTOPTOPTOPTOPTOPTOPTOPTOPTOPTOPTOPTOPTOPTOPT
 *******************************************************************************
 COORDINATE OPTIMIZATION - POINT    2
 *******************************************************************************
 ATOMS IN THE ASYMMETRIC UNIT    2 - ATOMS IN THE UNIT CELL:    3
     ATOM          X(ANGSTROM)         Y(ANGSTROM)         Z(ANGSTROM)
 *******************************************************************************
   1 T   8 O     0.000000000000E+00  0.000000000000E+00  4.726618623248E-01
   2 T   1 H    -7.575293545317E-01  0.000000000000E+00 -2.363309311624E-01
   3 F   1 H     7.575293545317E-01  0.000000000000E+00 -2.363309311624E-01

 T = ATOM BELONGING TO THE ASYMMETRIC UNIT

 TOTAL ENERGY(DFT)(AU)( 12) -7.4977191854541E+01     DE (AU)   -1.460E-02

 UPDATED TRUST RADIUS     0.500E+00

 SYMMETRY ALLOWED FORCES  (COORDINATE, FORCE)

    1 -1.2520641E-02    2 -4.7095744E-03

 GRADIENT NORM     0.013377  GRADIENT THRESHOLD     0.500000

 EIGENVALUES OF THE ESTIMATED HESSIAN
  0.1803      0.9675    

 PREDICTED ENERGY CHANGE    -0.328E-03

 MAX GRADIENT      0.012521  THRESHOLD              0.000045 CONVERGED NO
 RMS GRADIENT      0.009459  THRESHOLD              0.000030 CONVERGED NO
 MAX DISPLAC.      0.045118  THRESHOLD              0.000180 CONVERGED NO
 RMS DISPLAC.      0.040575  THRESHOLD              0.000120 CONVERGED NO
 TTTTTTTTTTTTTTTTTTTTTTTTTTTTTT OPTI        TELAPSE        0.78 TCPU        0.72
 *******************************************************************************
 COORDINATE OPTIMIZATION - POINT    3
 *******************************************************************************
 ATOMS IN THE ASYMMETRIC UNIT    2 - ATOMS IN THE UNIT CELL:    3
     ATOM          X(ANGSTROM)         Y(ANGSTROM)         Z(ANGSTROM)
 *******************************************************************************
   1 T   8 O     0.000000000000E+00  0.000000000000E+00  4.573424934779E-01
   2 T   1 H    -7.744116517928E-01  0.000000000000E+00 -2.286712467389E-01
   3 F   1 H     7.744116517928E-01  0.000000000000E+00 -2.286712467389E-01

 T = ATOM BELONGING TO THE ASYMMETRIC UNIT

 TOTAL ENERGY(DFT)(AU)(  9) -7.4977436473490E+01     DE (AU)   -2.446E-04

 UPDATED TRUST RADIUS     0.500E+00

 SYMMETRY ALLOWED FORCES  (COORDINATE, FORCE)

    1  2.2175353E-03    2  1.8841066E-03

 GRADIENT NORM     0.002910  GRADIENT THRESHOLD     0.500000

 EIGENVALUES OF THE ESTIMATED HESSIAN
  0.2252      0.9679    

 PREDICTED ENERGY CHANGE    -0.168E-04

 MAX GRADIENT      0.002218  THRESHOLD              0.000045 CONVERGED NO
 RMS GRADIENT      0.002058  THRESHOLD              0.000030 CONVERGED NO
 MAX DISPLAC.      0.010087  THRESHOLD              0.000180 CONVERGED NO
 RMS DISPLAC.      0.008520  THRESHOLD              0.000120 CONVERGED NO
 TTTTTTTTTTTTTTTTTTTTTTTTTTTTTT OPTI        TELAPSE        1.10 TCPU        1.00
 *******************************************************************************
 COORDINATE OPTIMIZATION - POINT    4
 *******************************************************************************
 ATOMS IN THE ASYMMETRIC UNIT    2 - ATOMS IN THE UNIT CELL:    3
     ATOM          X(ANGSTROM)         Y(ANGSTROM)         Z(ANGSTROM)
 *******************************************************************************
   1 T   8 O     0.000000000000E+00  0.000000000000E+00  4.601897606309E-01
   2 T   1 H    -7.706373524546E-01  0.000000000000E+00 -2.300948803154E-01
   3 F   1 H     7.706373524546E-01  0.000000000000E+00 -2.300948803154E-01

 T = ATOM BELONGING TO THE ASYMMETRIC UNIT

 TOTAL ENERGY(DFT)(AU)(  7) -7.4977453520502E+01     DE (AU)   -1.705E-05

 UPDATED TRUST RADIUS     0.500E+00

 SYMMETRY ALLOWED FORCES  (COORDINATE, FORCE)

    1 -4.2922560E-05    2  7.1740036E-05

 GRADIENT NORM     0.000084  GRADIENT THRESHOLD     0.500000

 EIGENVALUES OF THE ESTIMATED HESSIAN
  0.2210      0.9732    

 PREDICTED ENERGY CHANGE    -0.696E-08

 MAX GRADIENT      0.000072  THRESHOLD              0.000045 CONVERGED NO
 RMS GRADIENT      0.000059  THRESHOLD              0.000030 CONVERGED NO
 MAX DISPLAC.      0.000210  THRESHOLD              0.000180 CONVERGED NO
 RMS DISPLAC.      0.000150  THRESHOLD              0.000120 CONVERGED NO
 TTTTTTTTTTTTTTTTTTTTTTTTTTTTTT OPTI        TELAPSE        1.34 TCPU        1.24
 *******************************************************************************
 COORDINATE OPTIMIZATION - POINT    5
 *******************************************************************************
 ATOMS IN THE ASYMMETRIC UNIT    2 - ATOMS IN THE UNIT CELL:    3
     ATOM          X(ANGSTROM)         Y(ANGSTROM)         Z(ANGSTROM)
 *******************************************************************************
   1 T   8 O     0.000000000000E+00  0.000000000000E+00  4.602012581996E-01
   2 T   1 H    -7.705587690785E-01  0.000000000000E+00 -2.301006290998E-01
   3 F   1 H     7.705587690785E-01  0.000000000000E+00 -2.301006290998E-01

 T = ATOM BELONGING TO THE ASYMMETRIC UNIT

 TOTAL ENERGY(DFT)(AU)(  3) -7.4977453528527E+01     DE (AU)   -8.024E-09

 UPDATED TRUST RADIUS     0.500E+00

 SYMMETRY ALLOWED FORCES  (COORDINATE, FORCE)

    1 -1.0092230E-05    2  6.7836066E-06

 GRADIENT NORM     0.000012  GRADIENT THRESHOLD     0.500000

 EIGENVALUES OF THE ESTIMATED HESSIAN
  0.2231      0.8841    

 PREDICTED ENERGY CHANGE    -0.895E-10

 MAX GRADIENT      0.000010  THRESHOLD              0.000045 CONVERGED YES
 RMS GRADIENT      0.000009  THRESHOLD              0.000030 CONVERGED YES
 MAX DISPLAC.      0.000013  THRESHOLD              0.000180 CONVERGED YES
 RMS DISPLAC.      0.000011  THRESHOLD              0.000120 CONVERGED YES

 CONVERGENCE TESTS SATISFIED AFTER   5 ENERGY AND GRADIENT CALCULATIONS
++++++++++++++++++++++++++++++++++++++++++++++++++++++++++++++++++++++
 FINALRUN OPTION: RE-STARTING OPTIMIZATION
++++++++++++++++++++++++++++++++++++++++++++++++++++++++++++++++++++++
 TTTTTTTTTTTTTTTTTTTTTTTTTTTTTT OPTI        TELAPSE        1.52 TCPU        1.42
 *******************************************************************************
 COORDINATE OPTIMIZATION - POINT    6
 *******************************************************************************
 ATOMS IN THE ASYMMETRIC UNIT    2 - ATOMS IN THE UNIT CELL:    3
     ATOM          X(ANGSTROM)         Y(ANGSTROM)         Z(ANGSTROM)
 *******************************************************************************
   1 T   8 O     0.000000000000E+00  0.000000000000E+00  4.601974755489E-01
   2 T   1 H    -7.705537651006E-01  0.000000000000E+00 -2.300987377744E-01
   3 F   1 H     7.705537651006E-01  0.000000000000E+00 -2.300987377744E-01

 T = ATOM BELONGING TO THE ASYMMETRIC UNIT

 ENERGY DIFFERENCE WITH RESPECT TO FIRST CALCULATION USING
 THE PRESENT REFERENCE GEOMETRY:  7.497745352853E+01

 MAXIMUM ATOM DISPLACEMENT WITH RESPECT TO
 THE PRESENT REFERENCE GEOMETRY:   1.716334908690E-01

 REFERENCE GEOMETRY WILL BE CHANGED

 TOTAL ENERGY(DFT)(AU)( 11) -7.4977453540793E+01     DE (AU)   -1.227E-08

 SYMMETRY ALLOWED FORCES  (COORDINATE, FORCE)

    1 -1.1436103E-06    2  3.8676865E-06

 GRADIENT NORM     0.000004  GRADIENT THRESHOLD     0.500000

 HESSIAN UPDATE SKIPPED

 EIGENVALUES OF THE ESTIMATED HESSIAN
  0.2231      0.8841    

 PREDICTED ENERGY CHANGE    -0.245E-10

 MAX GRADIENT      0.000004  THRESHOLD              0.000045 CONVERGED YES
 RMS GRADIENT      0.000003  THRESHOLD              0.000030 CONVERGED YES

 WARNINGWARNINGWARNINGWARNINGWARNINGWARNINGWARNINGWARNINGWARNINGWARNINGWARNING

 CONVERGENCE ON GRADIENT - NO CHANGE IN ENERGY FOR   2 STEPS

 CONVERGENCE TESTS SATISFIED AFTER   6 ENERGY AND GRADIENT CALCULATIONS

 WARNINGWARNINGWARNINGWARNINGWARNINGWARNINGWARNINGWARNINGWARNINGWARNINGWARNING


 ******************************************************************
 * OPT END - CONVERGED * E(AU):  -7.497745354079E+01  POINTS    6 *
 ******************************************************************

 EIGENVECTORS IN FORTRAN UNIT  8

 NEIGHBORS OF THE NON-EQUIVALENT ATOMS

 N = NUMBER OF NEIGHBORS AT DISTANCE R
    ATOM  N     R/ANG      R/AU   NEIGHBORS (ATOM LABELS AND CELL INDICES)
   1 O    2     1.0345     1.9550    2 H    0 0 0    3 H    0 0 0

   2 H    1     1.0345     1.9550    1 O    0 0 0
   2 H    1     1.5411     2.9123    3 H    0 0 0


 FINAL OPTIMIZED GEOMETRY - DIMENSIONALITY OF THE SYSTEM      0
 (NON PERIODIC DIRECTION: LATTICE PARAMETER FORMALLY SET TO 500)
 *******************************************************************************
 ATOMS IN THE ASYMMETRIC UNIT    2 - ATOMS IN THE UNIT CELL:    3
     ATOM          X(ANGSTROM)         Y(ANGSTROM)         Z(ANGSTROM)
 *******************************************************************************
   1 T   8 O     0.000000000000E+00  0.000000000000E+00  4.601974755489E-01
   2 T   1 H    -7.705537651006E-01  0.000000000000E+00 -2.300987377744E-01
   3 F   1 H     7.705537651006E-01  0.000000000000E+00 -2.300987377744E-01

 T = ATOM BELONGING TO THE ASYMMETRIC UNIT
 INFORMATION **** fort.34 **** GEOMETRY OUTPUT FILE

 *******************************************************************************
 *                                                                             *
 *                                                                             *
 *         FFFFF  RRRR   EEEE   QQQ   U   U  EEEE  N   N   CCC  Y   Y          *
 *         F      R   R  E     Q   Q  U   U  E     NN  N  C      Y Y           *
 *         FFF    RRRR   EEEE  Q   Q  U   U  EEEE  N N N  C       Y            *
 *         F      R   R  E     Q  QQ  U   U  E     N  NN  C       Y            *
 *         F      R   R  EEEE   QQ Q   UUU   EEEE  N   N   CCC    Y            *
 *                                                                             *
 *                                                                             *
 * CALCULATION OF PHONON FREQUENCIES AT THE GAMMA POINT.                       *
 *                                                                             *
 * SYMMETRY IS EXPLOITED TO BUILD THE TOTAL HESSIAN MATRIX.                    *
 * (F. PASCALE PHD THESIS TURIN-PARIS 2002)                                    *
 *                                                                             *
 *******************************************************************************


 * INTENSITIES COMPUTED VIA THE BERRY PHASE APPROACH                           *
 *                                                                             *
 * REFERENCES TO BE QUOTED WHEN USING THIS MODULE:                             *
 *                                                                             *
 * F. Pascale, C.M. Zicovich-Wilson, F. Lopez, B. Civalleri                    *
 * R. Orlando, R. Dovesi                                                       *
 * The calculation of the vibration frequencies of crystalline                 *
 * compounds and its implementation in the CRYSTAL code                        *
 * J. Comput. Chem. 25 (2004) 888-897                                          *
 *                                                                             *
 * C.M. Zicovich-Wilson, F. Pascale, C. Roetti, V.R. Saunders,                 *
 * R. Orlando, R. Dovesi                                                       *
 * The calculation of the vibration frequencies of alpha-quartz:               *
 * the effect of hamiltonian and basis set                                     *
 * J. Comput. Chem. 25 (2004) 1873-1881                                        *
 *******************************************************************************



 ATOMS ISOTOPIC MASS (AMU) FOR FREQUENCY CALCULATION 

    1 O      15.9949    2 H       1.0078    3 H       1.0078

 INFORMATION CONCERNING THE SCF+GRADIENT CALCULATIONS REQUIRED FOR
 GENERATING FREQUENCIES. IN PRINCIPLE 3N+1 SCF + GRADIENT
 CALCULATIONS  ARE REQUIRED;
 FOR EACH OF THEM THE REMAINING POINT SYMMETRY IS INDICATED.
 POINT SYMMETRY PERMITS TO GENERATE GRADIENTS FOR DISPLACEMENT B 
 STARTING FROM THE GRADIENT GENERATED BY DISPLACEMENT A.

   N   LABEL SYMBOL DISPLACEMENT     SYM. 

   1     EQUILIBRIUM GEOMETRY            4

   2      1   O            DX        GENERATED BY TRANSLATIONAL INVARIANCE
   3      1   O            DY        GENERATED BY TRANSLATIONAL INVARIANCE
   4      1   O            DZ        GENERATED BY TRANSLATIONAL INVARIANCE
   5      2   H            DX           2
   6      2   H            DY           1
   7      2   H            DZ           2
 USE OF RESIDUAL SYMMETRY AFTER DISPLACEMENT

 NUMERICAL GRADIENT COMPUTED WITH A DOUBLE DISPLACEMENT (+-DX) FOR EACH
 CARTESIAN COORDINATE WITH RESPECT TO THE EQUILIBRIUM CONFIGURATION
 DX=  0.003 ANGSTROM
 NUMBER OF IRREDUCIBLE ATOMS                     2
 NUMBER OF SCF+GRADIENT CALCULATIONS             7

  ATOM  SYMOP  ORDER
    1      4      2
    2      2      2

 ATOM  : IRREDUCIBLE ATOM
 SYMOP : NUMBER OF SYMMETRY OPERATORS THAT DOESN'T MOVE THE IRREDUCIBLE ATOM
 ORDER : MAXIMUM ORDER AMONG THE OPERATORS OF THE IRREDUCIBLE ATOM

 *******************************************************************************


 MATRIX SIZE: P(G)      49, F(G)      28, P(G) IRR      28, F(G) IRR      28
 MAX G-VECTOR INDEX FOR 1- AND 2-ELECTRON INTEGRALS   1

 TTTTTTTTTTTTTTTTTTTTTTTTTTTTTT INPUT       TELAPSE        1.88 TCPU        1.75

 SYMMETRY ALLOWED INTERNAL DEGREE(S) OF FREEDOM:   2
 TTTTTTTTTTTTTTTTTTTTTTTTTTTTTT SYMM        TELAPSE        1.88 TCPU        1.75
 TTTTTTTTTTTTTTTTTTTTTTTTTTTTTT INT_SCREEN  TELAPSE        1.88 TCPU        1.75

 HHHHHHHHHHHHHHHHHHHHHHHHHHHHHHHHHHHHHHHHHHHHHHHHHHHHHHHHHHHHHHHHHHHHHHHHHHHHHHH
                   FORCE CONSTANT MATRIX - NUMERICAL ESTIMATE
 HHHHHHHHHHHHHHHHHHHHHHHHHHHHHHHHHHHHHHHHHHHHHHHHHHHHHHHHHHHHHHHHHHHHHHHHHHHHHHH
 MAX ABS(DGRAD): MAXIMUM ABSOLUTE GRADIENT DIFFERENCE WITH RESPECT TO
                 THE CENTRAL POINT
 DE:             ENERGY DIFFERENCE WITH RESPECT TO THE CENTRAL POINT
                 (DE IS EXPECTED TO BE POSITIVE FOR ALL DISPLACEMENTS)

   ATOM      MAX ABS(DGRAD)       TOTAL ENERGY (AU)  N.CYC      DE       SYM
    CENTRAL POINT             -7.497745354079E+01     0     0.0000E+00     4
    2 H  DX   1.7939E-03      -7.497744848740E+01     6     5.0534E-06     2
    2 H  DX   1.7753E-03      -7.497744850626E+01     6     5.0345E-06     2
    2 H  DY   7.9151E-06      -7.497745354023E+01     6     5.6123E-10     1
    2 H  DY   7.9151E-06      -7.497745354023E+01     6     5.6127E-10     1
    2 H  DZ   1.4346E-03      -7.497744975292E+01     6     3.7879E-06     2
    2 H  DZ   1.4163E-03      -7.497744976332E+01     6     3.7775E-06     2

 CAPPA:IS1  1;IS2  1;IS3  1; K PTS MONK NET   1; SYMMOPS:K SPACE   8;G SPACE   4


 MATRIX SIZE: P(G)      49, F(G)      28, P(G) IRR      28, F(G) IRR      28
 MAX G-VECTOR INDEX FOR 1- AND 2-ELECTRON INTEGRALS   1

 TTTTTTTTTTTTTTTTTTTTTTTTTTTTTT INPUT       TELAPSE        5.04 TCPU        4.88

 SYMMETRY ALLOWED INTERNAL DEGREE(S) OF FREEDOM:   2
 TTTTTTTTTTTTTTTTTTTTTTTTTTTTTT SYMM        TELAPSE        5.04 TCPU        4.88
 TTTTTTTTTTTTTTTTTTTTTTTTTTTTTT INT_SCREEN  TELAPSE        5.04 TCPU        4.88

 +++ SYMMETRY ADAPTION OF VIBRATIONAL MODES +++

 SYMMETRY INFORMATION:
 K-LITTLE GROUP: CLASS TABLE, CHARACTER TABLE.
 IRREP-(DIMENSION, NO. IRREDUCIBLE SETS)
 [WARNINGS: (1) ONLY ACTIVE IRREPS ARE GENERATED AND LISTED.
            (2) ONLY RELEVANT CLASSES ARE CONSIDERED IN THE CHARACTER TABLE
            (3) SYMBOLS MAY NOT FULLY COINCIDE WITH THOSE FROM TEXT BOOKS.]

 (P, D, RP, RD, STAND FOR PAIRING, DOUBLING, REAL PAIRING AND REAL DOUBLING 
 OF THE IRREPS (SEE MANUAL))

 CLASS  | GROUP OPERATORS (SEE SYMMOPS KEYWORD)
 --------------------------------------------------------------------
 C2     |   2;
 SGV    |   3;
 SGV'   |   4;

 IRREP/CLA      E     C2    SGV   SGV'
 -------------------------------------
  MULTIP |      1      1      1      1
 -------------------------------------
    A1   |   1.00   1.00   1.00   1.00
    A2   |   1.00   1.00  -1.00  -1.00
    B1   |   1.00  -1.00   1.00  -1.00
    B2   |   1.00  -1.00  -1.00   1.00

 A1 -(1,   3); A2 -(1,   1); B1 -(1,   2); B2 -(1,   3);


 HHHHHHHHHHHHHHHHHHHHHHHHHHHHHHHHHHHHHHHHHHHHHHHHHHHHHHHHHHHHHHHHHHHHHHHHHHHHHH
 EIGENVALUES (EIGV) OF THE MASS WEIGHTED HESSIAN MATRIX AND HARMONIC TRANSVERSE
 OPTICAL (TO) FREQUENCIES. IRREP LABELS REFER TO SYMMETRY REPRESENTATION
 ANALYSIS; A AND I INDICATE WHETHER THE MODE IS ACTIVE OR INACTIVE,
 RESPECTIVELY, FOR IR AND RAMAN; INTEGRATED IR INTENSITIES IN BRACKETS.

 CONVERSION FACTORS FOR FREQUENCIES:
      1 CM**(-1) =   0.2194746E+06 HARTREE
      1 THZ      =   0.2997925E-01 CM**(-1)

 HHHHHHHHHHHHHHHHHHHHHHHHHHHHHHHHHHHHHHHHHHHHHHHHHHHHHHHHHHHHHHHHHHHHHHHHHHHHHH

    MODES         EIGV          FREQUENCIES     IRREP  IR   INTENS    RAMAN
             (HARTREE**2)   (CM**-1)     (THZ)             (KM/MOL)
    1-   1   -0.8105E-12     -0.1976   -0.0059  (B1 )   A (     0.00)   A
    2-   2   -0.1015E-12     -0.0699   -0.0021  (B1 )   A (     0.00)   A
    3-   3    0.0000E+00      0.0000    0.0000  (A2 )   I (     0.00)   A
    4-   4    0.1142E-19      0.0000    0.0000  (A1 )   A (     0.00)   A
    5-   5    0.4568E-19      0.0000    0.0000  (B2 )   A (     0.00)   A
    6-   6    0.4478E-13      0.0464    0.0014  (B2 )   A (     0.00)   A
    7-   7    0.8220E-04   1989.8656   59.6547  (A1 )   A (     0.00)   A
    8-   8    0.2595E-03   3535.5097  105.9919  (A1 )   A (     0.00)   A
    9-   9    0.2944E-03   3766.0743  112.9041  (B2 )   A (     0.00)   A

 NORMAL MODES NORMALIZED TO CLASSICAL AMPLITUDES

 FREQ(CM**-1)     -0.20     -0.07      0.00      0.00      0.00      0.05

 AT.   1 O  X     0.0000    0.0000    0.0000    0.0000   -0.0540    0.2356
            Y     6.1722    0.0000    0.0000    0.0000    0.0000    0.0000
            Z     0.0000    0.0000    0.0000    0.2356    0.0000    0.0000
 AT.   2 H  X     0.0000    0.0000    0.0000    0.0000    0.4282    0.2356
            Y     0.0000   29.2300    0.7044    0.0000    0.0000    0.0000
            Z     0.0000    0.0000    0.0000    0.2356   -0.5382    0.0000
 AT.   3 H  X     0.0000    0.0000    0.0000   -0.0000    0.4282    0.2356
            Y     0.0000   29.2300   -0.7044    0.0000    0.0000    0.0000
            Z     0.0000    0.0000    0.0000    0.2356    0.5382    0.0000

 FREQ(CM**-1)   1989.87   3535.51   3766.07

 AT.   1 O  X     0.0000    0.0000   -0.0114
            Y     0.0000    0.0000    0.0000
            Z    -0.0161   -0.0097    0.0000
 AT.   2 H  X    -0.1084    0.1014    0.0907
            Y     0.0000    0.0000    0.0000
            Z     0.1274    0.0766    0.0812
 AT.   3 H  X     0.1084   -0.1014    0.0907
            Y     0.0000    0.0000    0.0000
            Z     0.1274    0.0766   -0.0812

 *******************************************************************************

 VIBRATIONAL TEMPERATURES (K) [MODE NUMBER;IRREP]

 TO MODES
  2863.0 [   7;A1 ]  5086.8 [   8;A1 ]  5418.5 [   9;B2 ]

 *******************************************************************************

 HARMONIC VIBRATIONAL CONTRIBUTIONS TO THERMODYNAMIC FUNCTIONS AT GIVEN
 TEMPERATURE AND PRESSURE:

 (EL = ELECTRONIC ENERGY
  E0 = ZERO-POINT ENERGY
  ET = THERMAL CONTRIBUTION TO THE VIBRATIONAL ENERGY
  PV = PRESSURE * VOLUME
  TS = TEMPERATURE * ENTROPY)

                          AU/CELL             EV/CELL                 KJ/MOL
 EL            :     -74.977453540793   -2040.240234654193     -196853.27652969
 E0            :       0.021167479600       0.575996403007          55.57520986

 
 WARNING **** THERMOFRQ **** PV TERM COMPUTED ONLY FOR 3D SYSTEMS

 ---------------------
 -- THERMOCHEMISTRY --
 ---------------------

 Temperature   50.00 K, Pressure  0.10132500E+00 MPA
 Rotational symmetry number:   3
 Moments of inertia (a.u.) and Rotational temperatures (K)
 with respect to principal axes:
                          1                   2                     3
 Moments --            3.046059817110       7.319904693279       4.273844876169
 Temperatures --      28.434706322992      11.832642632808      20.266017801614

 THERMAL ENERGY           AU                  EV                      J/MOL
 Translational:        0.000237511136       0.006463006591         623.58540000
 Rotational:           0.000237511136       0.006463006591         623.58540000
 E0(Vibrational)       0.021167479600       0.575996403007       55575.20985777
 Vibr. corr.:          0.000000000000       0.000000000000           0.00000000
 Total:                0.021642501873       0.588922416188       56822.38065857


 ENTROPY                  AU/K                EV/K                    J/(MOL*K)
 Translational:        0.000041015409       0.001116086017         107.68594079
 Rotational:           0.000007689275       0.000209235803          20.18818801
 Vibrational:          0.000000000000       0.000000000000           0.00000000
 Total:                0.000048704684       0.001325321820         127.87412888

 HEAT CAPACITY            mAU/K               mEV/K                   J/(MOL*K)
 Translational:        0.004750222725       0.129260131817          12.47170800
 Rotational:           0.004750222725       0.129260131817          12.47170800
 Vibrational:          0.000000000000       0.000000000000           0.00000000
 Total:                0.009500445451       0.258520263633          24.94341602


 *******************************************************************************

 THERMODYNAMIC FUNCTIONS TAKING INTO ACCOUNT MOLECULAR
         ROTATIONAL, TRANSLATIONAL AND VIBRATIONAL CONTRIBUTIONS

 AT (T =   50.00 K, P =   0.10132500E+00 MPA):

                          AU/CELL             EV/CELL                 KJ/MOL
 ET            :       0.000475022273       0.012926013182           1.24717080
 PV            :       0.000158340758       0.004308671061           0.41572360
 TS            :       0.002435234182       0.066266090995           6.39370644
 ET+PV-TS      :      -0.001801871152      -0.049031406753          -4.73081204
 EL+E0+ET+PV-TS:     -74.958087932344   -2039.713269657939     -196802.43213188

 OTHER THERMODYNAMIC FUNCTIONS:

                      mHARTREE/(CELL*K)     mEV/(CELL*K)              J/(MOL*K)
 ENTROPY       :       0.048704683640       1.325321819900         127.87412888
 HEAT CAPACITY :       0.009500445451       0.258520263633          24.94341602

 *******************************************************************************

 ---------------------
 -- THERMOCHEMISTRY --
 ---------------------

 Temperature  100.00 K, Pressure  0.10132500E+00 MPA
 Rotational symmetry number:   3
 Moments of inertia (a.u.) and Rotational temperatures (K)
 with respect to principal axes:
                          1                   2                     3
 Moments --            3.046059817110       7.319904693279       4.273844876169
 Temperatures --      28.434706322992      11.832642632808      20.266017801614

 THERMAL ENERGY           AU                  EV                      J/MOL
 Translational:        0.000475022273       0.012926013182        1247.17080000
 Rotational:           0.000475022273       0.012926013182        1247.17080000
 E0(Vibrational)       0.021167479600       0.575996403007       55575.20985777
 Vibr. corr.:          0.000000000000       0.000000000000           0.00000001
 Total:                0.022117524145       0.601848429370       58069.55145937


 ENTROPY                  AU/K                EV/K                    J/(MOL*K)
 Translational:        0.000046503081       0.001265413176         122.09382285
 Rotational:           0.000010981878       0.000298832099          28.83291724
 Vibrational:          0.000000000000       0.000000000000           0.00000000
 Total:                0.000057484960       0.001564245276         150.92674019

 HEAT CAPACITY            mAU/K               mEV/K                   J/(MOL*K)
 Translational:        0.004750222725       0.129260131817          12.47170800
 Rotational:           0.004750222725       0.129260131817          12.47170800
 Vibrational:          0.000000000001       0.000000000026           0.00000000
 Total:                0.009500445452       0.258520263659          24.94341602


 *******************************************************************************

 THERMODYNAMIC FUNCTIONS TAKING INTO ACCOUNT MOLECULAR
         ROTATIONAL, TRANSLATIONAL AND VIBRATIONAL CONTRIBUTIONS

 AT (T =  100.00 K, P =   0.10132500E+00 MPA):

                          AU/CELL             EV/CELL                 KJ/MOL
 ET            :       0.000950044545       0.025852026363           2.49434160
 PV            :       0.000316681515       0.008617342121           0.83144720
 TS            :       0.005748495961       0.156424527571          15.09267402
 ET+PV-TS      :      -0.004481769901      -0.121955159086         -11.76688522
 EL+E0+ET+PV-TS:     -74.960767831094   -2039.786193410273     -196809.46820505

 OTHER THERMODYNAMIC FUNCTIONS:

                      mHARTREE/(CELL*K)     mEV/(CELL*K)              J/(MOL*K)
 ENTROPY       :       0.057484959611       1.564245275708         150.92674019
 HEAT CAPACITY :       0.009500445452       0.258520263659          24.94341602

 *******************************************************************************

 ---------------------
 -- THERMOCHEMISTRY --
 ---------------------

 Temperature  150.00 K, Pressure  0.10132500E+00 MPA
 Rotational symmetry number:   3
 Moments of inertia (a.u.) and Rotational temperatures (K)
 with respect to principal axes:
                          1                   2                     3
 Moments --            3.046059817110       7.319904693279       4.273844876169
 Temperatures --      28.434706322992      11.832642632808      20.266017801614

 THERMAL ENERGY           AU                  EV                      J/MOL
 Translational:        0.000712533409       0.019389019773        1870.75620000
 Rotational:           0.000712533409       0.019389019773        1870.75620000
 E0(Vibrational)       0.021167479600       0.575996403007       55575.20985777
 Vibr. corr.:          0.000000000047       0.000000001268           0.00012232
 Total:                0.022592546464       0.614774443819       59316.72238249


 ENTROPY                  AU/K                EV/K                    J/(MOL*K)
 Translational:        0.000049713164       0.001352763965         130.52189357
 Rotational:           0.000012907928       0.000351242573          33.88975968
 Vibrational:          0.000000000000       0.000000000009           0.00000086
 Total:                0.000062621092       0.001704006547         164.41165421

 HEAT CAPACITY            mAU/K               mEV/K                   J/(MOL*K)
 Translational:        0.004750222725       0.129260131817          12.47170800
 Rotational:           0.004750222725       0.129260131817          12.47170800
 Vibrational:          0.000000005928       0.000000161317           0.00001556
 Total:                0.009500451379       0.258520424950          24.94343158


 *******************************************************************************

 THERMODYNAMIC FUNCTIONS TAKING INTO ACCOUNT MOLECULAR
         ROTATIONAL, TRANSLATIONAL AND VIBRATIONAL CONTRIBUTIONS

 AT (T =  150.00 K, P =   0.10132500E+00 MPA):

                          AU/CELL             EV/CELL                 KJ/MOL
 ET            :       0.001425066864       0.038778040813           3.74151252
 PV            :       0.000475022273       0.012926013182           1.24717080
 TS            :       0.009393163819       0.255600982019          24.66174813
 ET+PV-TS      :      -0.007493074682      -0.203896928024         -19.67306481
 EL+E0+ET+PV-TS:     -74.963779135875   -2039.868135179211     -196817.37438464

 OTHER THERMODYNAMIC FUNCTIONS:

                      mHARTREE/(CELL*K)     mEV/(CELL*K)              J/(MOL*K)
 ENTROPY       :       0.062621092127       1.704006546791         164.41165421
 HEAT CAPACITY :       0.009500451379       0.258520424950          24.94343158

 *******************************************************************************

 ---------------------
 -- THERMOCHEMISTRY --
 ---------------------

 Temperature  200.00 K, Pressure  0.10132500E+00 MPA
 Rotational symmetry number:   3
 Moments of inertia (a.u.) and Rotational temperatures (K)
 with respect to principal axes:
                          1                   2                     3
 Moments --            3.046059817110       7.319904693279       4.273844876169
 Temperatures --      28.434706322992      11.832642632808      20.266017801614

 THERMAL ENERGY           AU                  EV                      J/MOL
 Translational:        0.000950044545       0.025852026363        2494.34160000
 Rotational:           0.000950044545       0.025852026363        2494.34160000
 E0(Vibrational)       0.021167479600       0.575996403007       55575.20985777
 Vibr. corr.:          0.000000005503       0.000000149743           0.01444796
 Total:                0.023067574193       0.627700605476       60563.90750893


 ENTROPY                  AU/K                EV/K                    J/(MOL*K)
 Translational:        0.000051990754       0.001414740336         136.50170491
 Rotational:           0.000014274482       0.000388428395          37.47764648
 Vibrational:          0.000000000029       0.000000000801           0.00007729
 Total:                0.000066265265       0.001803169533         173.97942879

 HEAT CAPACITY            mAU/K               mEV/K                   J/(MOL*K)
 Translational:        0.004750222725       0.129260131817          12.47170800
 Rotational:           0.004750222725       0.129260131817          12.47170800
 Vibrational:          0.000000393879       0.000010717987           0.00103413
 Total:                0.009500839330       0.258530981621          24.94445014


 *******************************************************************************

 THERMODYNAMIC FUNCTIONS TAKING INTO ACCOUNT MOLECULAR
         ROTATIONAL, TRANSLATIONAL AND VIBRATIONAL CONTRIBUTIONS

 AT (T =  200.00 K, P =   0.10132500E+00 MPA):

                          AU/CELL             EV/CELL                 KJ/MOL
 ET            :       0.001900094593       0.051704202469           4.98869765
 PV            :       0.000633363030       0.017234684242           1.66289440
 TS            :       0.013253053004       0.360633906506          34.79588576
 ET+PV-TS      :      -0.010719595381      -0.291695019794         -28.14429371
 EL+E0+ET+PV-TS:     -74.967005656573   -2039.955933270981     -196825.84561354

 OTHER THERMODYNAMIC FUNCTIONS:

                      mHARTREE/(CELL*K)     mEV/(CELL*K)              J/(MOL*K)
 ENTROPY       :       0.066265265019       1.803169532529         173.97942879
 HEAT CAPACITY :       0.009500839330       0.258530981621          24.94445014

 *******************************************************************************

 ---------------------
 -- THERMOCHEMISTRY --
 ---------------------

 Temperature  250.00 K, Pressure  0.10132500E+00 MPA
 Rotational symmetry number:   3
 Moments of inertia (a.u.) and Rotational temperatures (K)
 with respect to principal axes:
                          1                   2                     3
 Moments --            3.046059817110       7.319904693279       4.273844876169
 Temperatures --      28.434706322992      11.832642632808      20.266017801614

 THERMAL ENERGY           AU                  EV                      J/MOL
 Translational:        0.001187555681       0.032315032954        3117.92700000
 Rotational:           0.001187555681       0.032315032954        3117.92700000
 E0(Vibrational)       0.021167479600       0.575996403007       55575.20985777
 Vibr. corr.:          0.000000096403       0.000002623272           0.25310726
 Total:                0.023542687366       0.640629092187       61811.31696902


 ENTROPY                  AU/K                EV/K                    J/(MOL*K)
 Translational:        0.000053757390       0.001462812944         141.14000693
 Rotational:           0.000015334463       0.000417271960          40.26062769
 Vibrational:          0.000000000419       0.000000011409           0.00110082
 Total:                0.000069092272       0.001880096314         181.40173557

 HEAT CAPACITY            mAU/K               mEV/K                   J/(MOL*K)
 Translational:        0.004750222725       0.129260131817          12.47170800
 Rotational:           0.004750222725       0.129260131817          12.47170800
 Vibrational:          0.000004417155       0.000120196907           0.01159724
 Total:                0.009504862606       0.258640460540          24.95501326


 *******************************************************************************

 THERMODYNAMIC FUNCTIONS TAKING INTO ACCOUNT MOLECULAR
         ROTATIONAL, TRANSLATIONAL AND VIBRATIONAL CONTRIBUTIONS

 AT (T =  250.00 K, P =   0.10132500E+00 MPA):

                          AU/CELL             EV/CELL                 KJ/MOL
 ET            :       0.002375207766       0.064632689180           6.23610711
 PV            :       0.000791703788       0.021543355303           2.07861800
 TS            :       0.017273068095       0.470024078424          45.35043389
 ET+PV-TS      :      -0.014106156541      -0.383848033941         -37.03570878
 EL+E0+ET+PV-TS:     -74.970392217734   -2040.048086285128     -196834.73702861

 OTHER THERMODYNAMIC FUNCTIONS:

                      mHARTREE/(CELL*K)     mEV/(CELL*K)              J/(MOL*K)
 ENTROPY       :       0.069092272380       1.880096313696         181.40173557
 HEAT CAPACITY :       0.009504862606       0.258640460540          24.95501326

 *******************************************************************************

 ---------------------
 -- THERMOCHEMISTRY --
 ---------------------

 Temperature  300.00 K, Pressure  0.10132500E+00 MPA
 Rotational symmetry number:   3
 Moments of inertia (a.u.) and Rotational temperatures (K)
 with respect to principal axes:
                          1                   2                     3
 Moments --            3.046059817110       7.319904693279       4.273844876169
 Temperatures --      28.434706322992      11.832642632808      20.266017801614

 THERMAL ENERGY           AU                  EV                      J/MOL
 Translational:        0.001425066818       0.038778039545        3741.51240000
 Rotational:           0.001425066818       0.038778039545        3741.51240000
 E0(Vibrational)       0.021167479600       0.575996403007       55575.20985777
 Vibr. corr.:          0.000000650920       0.000017712425           1.70898938
 Total:                0.024018264155       0.653570194522       63059.94365194


 ENTROPY                  AU/K                EV/K                    J/(MOL*K)
 Translational:        0.000055200836       0.001502091125         144.92977563
 Rotational:           0.000016200531       0.000440838869          42.53448891
 Vibrational:          0.000000002397       0.000000065224           0.00629315
 Total:                0.000071403765       0.001942995218         187.47055782

 HEAT CAPACITY            mAU/K               mEV/K                   J/(MOL*K)
 Translational:        0.004750222725       0.129260131817          12.47170800
 Rotational:           0.004750222725       0.129260131817          12.47170800
 Vibrational:          0.000020731934       0.000564144605           0.05443169
 Total:                0.009521177385       0.259084408238          24.99784770


 *******************************************************************************

 THERMODYNAMIC FUNCTIONS TAKING INTO ACCOUNT MOLECULAR
         ROTATIONAL, TRANSLATIONAL AND VIBRATIONAL CONTRIBUTIONS

 AT (T =  300.00 K, P =   0.10132500E+00 MPA):

                          AU/CELL             EV/CELL                 KJ/MOL
 ET            :       0.002850784555       0.077573791515           7.48473379
 PV            :       0.000950044545       0.025852026363           2.49434160
 TS            :       0.021421129412       0.582898565290          56.24116735
 ET+PV-TS      :      -0.017620300312      -0.479472747412         -46.26209195
 EL+E0+ET+PV-TS:     -74.973906361505   -2040.143710998598     -196843.96341178

 OTHER THERMODYNAMIC FUNCTIONS:

                      mHARTREE/(CELL*K)     mEV/(CELL*K)              J/(MOL*K)
 ENTROPY       :       0.071403764707       1.942995217634         187.47055782
 HEAT CAPACITY :       0.009521177385       0.259084408238          24.99784770

 *******************************************************************************

 ---------------------
 -- THERMOCHEMISTRY --
 ---------------------

 Temperature  350.00 K, Pressure  0.10132500E+00 MPA
 Rotational symmetry number:   3
 Moments of inertia (a.u.) and Rotational temperatures (K)
 with respect to principal axes:
                          1                   2                     3
 Moments --            3.046059817110       7.319904693279       4.273844876169
 Temperatures --      28.434706322992      11.832642632808      20.266017801614

 THERMAL ENERGY           AU                  EV                      J/MOL
 Translational:        0.001662577954       0.045241046136        4365.09780000
 Rotational:           0.001662577954       0.045241046136        4365.09780000
 E0(Vibrational)       0.021167479600       0.575996403007       55575.20985777
 Vibr. corr.:          0.000002552483       0.000069456594           6.70154323
 Total:                0.024495187991       0.666547951872       64312.10700659


 ENTROPY                  AU/K                EV/K                    J/(MOL*K)
 Translational:        0.000056421253       0.001535300354         148.13397941
 Rotational:           0.000016932781       0.000460764406          44.45701118
 Vibrational:          0.000000008183       0.000000222657           0.02148315
 Total:                0.000073362217       0.001996287417         192.61247387

 HEAT CAPACITY            mAU/K               mEV/K                   J/(MOL*K)
 Translational:        0.004750222725       0.129260131817          12.47170800
 Rotational:           0.004750222725       0.129260131817          12.47170800
 Vibrational:          0.000059881439       0.001629456806           0.15721870
 Total:                0.009560326890       0.260149720439          25.10063471


 *******************************************************************************

 THERMODYNAMIC FUNCTIONS TAKING INTO ACCOUNT MOLECULAR
         ROTATIONAL, TRANSLATIONAL AND VIBRATIONAL CONTRIBUTIONS

 AT (T =  350.00 K, P =   0.10132500E+00 MPA):

                          AU/CELL             EV/CELL                 KJ/MOL
 ET            :       0.003327708391       0.090551548866           8.73689715
 PV            :       0.001108385303       0.030160697424           2.91006520
 TS            :       0.025676775987       0.698700595859          67.41436585
 ET+PV-TS      :      -0.021240682294      -0.577988349569         -55.76740350
 EL+E0+ET+PV-TS:     -74.977526743486   -2040.242226600756     -196853.46872334

 OTHER THERMODYNAMIC FUNCTIONS:

                      mHARTREE/(CELL*K)     mEV/(CELL*K)              J/(MOL*K)
 ENTROPY       :       0.073362217106       1.996287416739         192.61247387
 HEAT CAPACITY :       0.009560326890       0.260149720439          25.10063471

 *******************************************************************************

 ---------------------
 -- THERMOCHEMISTRY --
 ---------------------

 Temperature  400.00 K, Pressure  0.10132500E+00 MPA
 Rotational symmetry number:   3
 Moments of inertia (a.u.) and Rotational temperatures (K)
 with respect to principal axes:
                          1                   2                     3
 Moments --            3.046059817110       7.319904693279       4.273844876169
 Temperatures --      28.434706322992      11.832642632808      20.266017801614

 THERMAL ENERGY           AU                  EV                      J/MOL
 Translational:        0.001900089090       0.051704052727        4988.68320000
 Rotational:           0.001900089090       0.051704052727        4988.68320000
 E0(Vibrational)       0.021167479600       0.575996403007       55575.20985777
 Vibr. corr.:          0.000007139628       0.000194279142          18.74508945
 Total:                0.024974797408       0.679598787602       65571.32135362


 ENTROPY                  AU/K                EV/K                    J/(MOL*K)
 Translational:        0.000057478426       0.001564067496         150.90958697
 Rotational:           0.000017567085       0.000478024691          46.12237572
 Vibrational:          0.000000020331       0.000000553230           0.05337854
 Total:                0.000075065842       0.002042645417         197.08534136

 HEAT CAPACITY            mAU/K               mEV/K                   J/(MOL*K)
 Translational:        0.004750222725       0.129260131817          12.47170800
 Rotational:           0.004750222725       0.129260131817          12.47170800
 Vibrational:          0.000128882317       0.003507066146           0.33838048
 Total:                0.009629327768       0.262027329779          25.28179649


 *******************************************************************************

 THERMODYNAMIC FUNCTIONS TAKING INTO ACCOUNT MOLECULAR
         ROTATIONAL, TRANSLATIONAL AND VIBRATIONAL CONTRIBUTIONS

 AT (T =  400.00 K, P =   0.10132500E+00 MPA):

                          AU/CELL             EV/CELL                 KJ/MOL
 ET            :       0.003807317808       0.103602384596           9.99611150
 PV            :       0.001266726060       0.034469368484           3.32578880
 TS            :       0.030026336946       0.817058166740          78.83413654
 ET+PV-TS      :      -0.024952293078      -0.678986413660         -65.51223624
 EL+E0+ET+PV-TS:     -74.981238354271   -2040.343224664847     -196863.21355608

 OTHER THERMODYNAMIC FUNCTIONS:

                      mHARTREE/(CELL*K)     mEV/(CELL*K)              J/(MOL*K)
 ENTROPY       :       0.075065842365       2.042645416849         197.08534136
 HEAT CAPACITY :       0.009629327768       0.262027329779          25.28179649

 *******************************************************************************

 ---------------------
 -- THERMOCHEMISTRY --
 ---------------------

 Temperature  450.00 K, Pressure  0.10132500E+00 MPA
 Rotational symmetry number:   3
 Moments of inertia (a.u.) and Rotational temperatures (K)
 with respect to principal axes:
                          1                   2                     3
 Moments --            3.046059817110       7.319904693279       4.273844876169
 Temperatures --      28.434706322992      11.832642632808      20.266017801614

 THERMAL ENERGY           AU                  EV                      J/MOL
 Translational:        0.002137600226       0.058167059318        5612.26860000
 Rotational:           0.002137600226       0.058167059318        5612.26860000
 E0(Vibrational)       0.021167479600       0.575996403007       55575.20985777
 Vibr. corr.:          0.000015972303       0.000434628452          41.93527481
 Total:                0.025458652356       0.692765150094       66841.68233977


 ENTROPY                  AU/K                EV/K                    J/(MOL*K)
 Translational:        0.000058410919       0.001589441914         153.35784635
 Rotational:           0.000018126581       0.000493249342          47.59133135
 Vibrational:          0.000000041021       0.000001116244           0.10770122
 Total:                0.000076578521       0.002083807500         201.05687904

 HEAT CAPACITY            mAU/K               mEV/K                   J/(MOL*K)
 Translational:        0.004750222725       0.129260131817          12.47170800
 Rotational:           0.004750222725       0.129260131817          12.47170800
 Vibrational:          0.000229658439       0.006249323835           0.60296815
 Total:                0.009730103890       0.264769587468          25.54638416


 *******************************************************************************

 THERMODYNAMIC FUNCTIONS TAKING INTO ACCOUNT MOLECULAR
         ROTATIONAL, TRANSLATIONAL AND VIBRATIONAL CONTRIBUTIONS

 AT (T =  450.00 K, P =   0.10132500E+00 MPA):

                          AU/CELL             EV/CELL                 KJ/MOL
 ET            :       0.004291172756       0.116768747087          11.26647248
 PV            :       0.001425066818       0.038778039545           3.74151240
 TS            :       0.034460334534       0.937713375103          90.47559557
 ET+PV-TS      :      -0.028744094961      -0.782166588471         -75.46761068
 EL+E0+ET+PV-TS:     -74.985030156154   -2040.446404839658     -196873.16893052

 OTHER THERMODYNAMIC FUNCTIONS:

                      mHARTREE/(CELL*K)     mEV/(CELL*K)              J/(MOL*K)
 ENTROPY       :       0.076578521187       2.083807500230         201.05687904
 HEAT CAPACITY :       0.009730103890       0.264769587468          25.54638416

 *******************************************************************************

 ---------------------
 -- THERMOCHEMISTRY --
 ---------------------

 Temperature  500.00 K, Pressure  0.10132500E+00 MPA
 Rotational symmetry number:   3
 Moments of inertia (a.u.) and Rotational temperatures (K)
 with respect to principal axes:
                          1                   2                     3
 Moments --            3.046059817110       7.319904693279       4.273844876169
 Temperatures --      28.434706322992      11.832642632808      20.266017801614

 THERMAL ENERGY           AU                  EV                      J/MOL
 Translational:        0.002375111363       0.064630065908        6235.85400000
 Rotational:           0.002375111363       0.064630065908        6235.85400000
 E0(Vibrational)       0.021167479600       0.575996403007       55575.20985777
 Vibr. corr.:          0.000030608235       0.000832892413          80.36190920
 Total:                0.025948310560       0.706089427236       68127.27977496


 ENTROPY                  AU/K                EV/K                    J/(MOL*K)
 Translational:        0.000059245062       0.001612140104         155.54788900
 Rotational:           0.000018627067       0.000506868256          48.90535693
 Vibrational:          0.000000071741       0.000001952177           0.18835648
 Total:                0.000077943870       0.002120960537         204.64160253

 HEAT CAPACITY            mAU/K               mEV/K                   J/(MOL*K)
 Translational:        0.004750222725       0.129260131817          12.47170800
 Rotational:           0.004750222725       0.129260131817          12.47170800
 Vibrational:          0.000360550312       0.009811072762           0.94662471
 Total:                0.009860995762       0.268331336396          25.89004073


 *******************************************************************************

 THERMODYNAMIC FUNCTIONS TAKING INTO ACCOUNT MOLECULAR
         ROTATIONAL, TRANSLATIONAL AND VIBRATIONAL CONTRIBUTIONS

 AT (T =  500.00 K, P =   0.10132500E+00 MPA):

                          AU/CELL             EV/CELL                 KJ/MOL
 ET            :       0.004780830960       0.130093024230          12.55206992
 PV            :       0.001583407575       0.043086710606           4.15723600
 TS            :       0.038971935131       1.060480268691         102.32080127
 ET+PV-TS      :      -0.032607696596      -0.887300533855         -85.61149535
 EL+E0+ET+PV-TS:     -74.988893757788   -2040.551538785042     -196883.31281518

 OTHER THERMODYNAMIC FUNCTIONS:

                      mHARTREE/(CELL*K)     mEV/(CELL*K)              J/(MOL*K)
 ENTROPY       :       0.077943870262       2.120960537381         204.64160253
 HEAT CAPACITY :       0.009860995762       0.268331336396          25.89004073

 *******************************************************************************

 ---------------------
 -- THERMOCHEMISTRY --
 ---------------------

 Temperature  550.00 K, Pressure  0.10132500E+00 MPA
 Rotational symmetry number:   3
 Moments of inertia (a.u.) and Rotational temperatures (K)
 with respect to principal axes:
                          1                   2                     3
 Moments --            3.046059817110       7.319904693279       4.273844876169
 Temperatures --      28.434706322992      11.832642632808      20.266017801614

 THERMAL ENERGY           AU                  EV                      J/MOL
 Translational:        0.002612622499       0.071093072499        6859.43940000
 Rotational:           0.002612622499       0.071093072499        6859.43940000
 E0(Vibrational)       0.021167479600       0.575996403007       55575.20985777
 Vibr. corr.:          0.000052474904       0.001427914723         137.77284019
 Total:                0.026445199502       0.719610462728       69431.86150675


 ENTROPY                  AU/K                EV/K                    J/(MOL*K)
 Translational:        0.000059999637       0.001632673115         157.52902355
 Rotational:           0.000019079811       0.000519188062          50.09403766
 Vibrational:          0.000000113304       0.000003083162           0.29747998
 Total:                0.000079192752       0.002154944340         207.92054132

 HEAT CAPACITY            mAU/K               mEV/K                   J/(MOL*K)
 Translational:        0.004750222725       0.129260131817          12.47170800
 Rotational:           0.004750222725       0.129260131817          12.47170800
 Vibrational:          0.000518286869       0.014103302692           1.36076198
 Total:                0.010018732319       0.272623566326          26.30417800


 *******************************************************************************

 THERMODYNAMIC FUNCTIONS TAKING INTO ACCOUNT MOLECULAR
         ROTATIONAL, TRANSLATIONAL AND VIBRATIONAL CONTRIBUTIONS

 AT (T =  550.00 K, P =   0.10132500E+00 MPA):

                          AU/CELL             EV/CELL                 KJ/MOL
 ET            :       0.005277719902       0.143614059721          13.85665165
 PV            :       0.001741748333       0.047395381666           4.57295960
 TS            :       0.043556013652       1.185219386868         114.35629773
 ET+PV-TS      :      -0.036536545418      -0.994209945481         -95.92668648
 EL+E0+ET+PV-TS:     -74.992822606611   -2040.658448196667     -196893.62800631

 OTHER THERMODYNAMIC FUNCTIONS:

                      mHARTREE/(CELL*K)     mEV/(CELL*K)              J/(MOL*K)
 ENTROPY       :       0.079192752095       2.154944339760         207.92054132
 HEAT CAPACITY :       0.010018732319       0.272623566326          26.30417800

 *******************************************************************************

 ---------------------
 -- THERMOCHEMISTRY --
 ---------------------

 Temperature  600.00 K, Pressure  0.10132500E+00 MPA
 Rotational symmetry number:   3
 Moments of inertia (a.u.) and Rotational temperatures (K)
 with respect to principal axes:
                          1                   2                     3
 Moments --            3.046059817110       7.319904693279       4.273844876169
 Temperatures --      28.434706322992      11.832642632808      20.266017801614

 THERMAL ENERGY           AU                  EV                      J/MOL
 Translational:        0.002850133635       0.077556079090        7483.02480000
 Rotational:           0.002850133635       0.077556079090        7483.02480000
 E0(Vibrational)       0.021167479600       0.575996403007       55575.20985777
 Vibr. corr.:          0.000082823428       0.002253740060         217.45288016
 Total:                0.026950570299       0.733362301247       70758.71234752


 ENTROPY                  AU/K                EV/K                    J/(MOL*K)
 Translational:        0.000060688509       0.001651418285         159.33765769
 Rotational:           0.000019493135       0.000530435164          51.17921815
 Vibrational:          0.000000166003       0.000004517181           0.43584171
 Total:                0.000080347647       0.002186370630         210.95271769

 HEAT CAPACITY            mAU/K               mEV/K                   J/(MOL*K)
 Translational:        0.004750222725       0.129260131817          12.47170800
 Rotational:           0.004750222725       0.129260131817          12.47170800
 Vibrational:          0.000699219105       0.019026719160           1.83579950
 Total:                0.010199664556       0.277546982794          26.77921552


 *******************************************************************************

 THERMODYNAMIC FUNCTIONS TAKING INTO ACCOUNT MOLECULAR
         ROTATIONAL, TRANSLATIONAL AND VIBRATIONAL CONTRIBUTIONS

 AT (T =  600.00 K, P =   0.10132500E+00 MPA):

                          AU/CELL             EV/CELL                 KJ/MOL
 ET            :       0.005783090699       0.157365898240          15.18350249
 PV            :       0.001900089090       0.051704052727           4.98868320
 TS            :       0.048208588251       1.311822378060         126.57163061
 ET+PV-TS      :      -0.040525408462      -1.102752427093        -106.39944492
 EL+E0+ET+PV-TS:     -74.996811469654   -2040.766990678279     -196904.10076476

 OTHER THERMODYNAMIC FUNCTIONS:

                      mHARTREE/(CELL*K)     mEV/(CELL*K)              J/(MOL*K)
 ENTROPY       :       0.080347647084       2.186370630099         210.95271769
 HEAT CAPACITY :       0.010199664556       0.277546982794          26.77921552

 *******************************************************************************

 ---------------------
 -- THERMOCHEMISTRY --
 ---------------------

 Temperature  650.00 K, Pressure  0.10132500E+00 MPA
 Rotational symmetry number:   3
 Moments of inertia (a.u.) and Rotational temperatures (K)
 with respect to principal axes:
                          1                   2                     3
 Moments --            3.046059817110       7.319904693279       4.273844876169
 Temperatures --      28.434706322992      11.832642632808      20.266017801614

 THERMAL ENERGY           AU                  EV                      J/MOL
 Translational:        0.003087644772       0.084019085681        8106.61020000
 Rotational:           0.003087644772       0.084019085681        8106.61020000
 E0(Vibrational)       0.021167479600       0.575996403007       55575.20985777
 Vibr. corr.:          0.000122724363       0.003339499691         322.21276938
 Total:                0.027465493506       0.747374074060       72110.64303754


 ENTROPY                  AU/K                EV/K                    J/(MOL*K)
 Translational:        0.000061322210       0.001668662170         161.00143982
 Rotational:           0.000019873355       0.000540781495          52.17748743
 Vibrational:          0.000000229772       0.000006252409           0.60326585
 Total:                0.000081425337       0.002215696075         213.78219324

 HEAT CAPACITY            mAU/K               mEV/K                   J/(MOL*K)
 Translational:        0.004750222725       0.129260131817          12.47170800
 Rotational:           0.004750222725       0.129260131817          12.47170800
 Vibrational:          0.000899811543       0.024485116877           2.36245487
 Total:                0.010400256994       0.283005380511          27.30587089


 *******************************************************************************

 THERMODYNAMIC FUNCTIONS TAKING INTO ACCOUNT MOLECULAR
         ROTATIONAL, TRANSLATIONAL AND VIBRATIONAL CONTRIBUTIONS

 AT (T =  650.00 K, P =   0.10132500E+00 MPA):

                          AU/CELL             EV/CELL                 KJ/MOL
 ET            :       0.006298013906       0.171377671053          16.53543318
 PV            :       0.002058429848       0.056012723787           5.40440680
 TS            :       0.052926469316       1.440202448565         138.95842561
 ET+PV-TS      :      -0.044570025562      -1.212812053725        -117.01858562
 EL+E0+ET+PV-TS:     -75.000856086755   -2040.877050304912     -196914.71990546

 OTHER THERMODYNAMIC FUNCTIONS:

                      mHARTREE/(CELL*K)     mEV/(CELL*K)              J/(MOL*K)
 ENTROPY       :       0.081425337409       2.215696074716         213.78219324
 HEAT CAPACITY :       0.010400256994       0.283005380511          27.30587089

 *******************************************************************************

 ---------------------
 -- THERMOCHEMISTRY --
 ---------------------

 Temperature  700.00 K, Pressure  0.10132500E+00 MPA
 Rotational symmetry number:   3
 Moments of inertia (a.u.) and Rotational temperatures (K)
 with respect to principal axes:
                          1                   2                     3
 Moments --            3.046059817110       7.319904693279       4.273844876169
 Temperatures --      28.434706322992      11.832642632808      20.266017801614

 THERMAL ENERGY           AU                  EV                      J/MOL
 Translational:        0.003325155908       0.090482092272        8730.19560000
 Rotational:           0.003325155908       0.090482092272        8730.19560000
 E0(Vibrational)       0.021167479600       0.575996403007       55575.20985777
 Vibr. corr.:          0.000173076672       0.004709655668         454.41273720
 Total:                0.027990868087       0.761670243218       73490.01380617


 ENTROPY                  AU/K                EV/K                    J/(MOL*K)
 Translational:        0.000061908926       0.001684627514         162.54186147
 Rotational:           0.000020225385       0.000550360702          53.10174042
 Vibrational:          0.000000304303       0.000008280498           0.79894663
 Total:                0.000082438613       0.002243268713         216.44254866

 HEAT CAPACITY            mAU/K               mEV/K                   J/(MOL*K)
 Translational:        0.004750222725       0.129260131817          12.47170800
 Rotational:           0.004750222725       0.129260131817          12.47170800
 Vibrational:          0.001116735029       0.030387905020           2.93198740
 Total:                0.010617180479       0.288908168653          27.87540342


 *******************************************************************************

 THERMODYNAMIC FUNCTIONS TAKING INTO ACCOUNT MOLECULAR
         ROTATIONAL, TRANSLATIONAL AND VIBRATIONAL CONTRIBUTIONS

 AT (T =  700.00 K, P =   0.10132500E+00 MPA):

                          AU/CELL             EV/CELL                 KJ/MOL
 ET            :       0.006823388487       0.185673840211          17.91480395
 PV            :       0.002216770605       0.060321394848           5.82013040
 TS            :       0.057707029295       1.570288099012         151.50978406
 ET+PV-TS      :      -0.048666870202      -1.324292863953        -127.77484971
 EL+E0+ET+PV-TS:     -75.004952931395   -2040.988531115139     -196925.47616954

 OTHER THERMODYNAMIC FUNCTIONS:

                      mHARTREE/(CELL*K)     mEV/(CELL*K)              J/(MOL*K)
 ENTROPY       :       0.082438613278       2.243268712874         216.44254866
 HEAT CAPACITY :       0.010617180479       0.288908168653          27.87540342

 *******************************************************************************

 ---------------------
 -- THERMOCHEMISTRY --
 ---------------------

 Temperature  750.00 K, Pressure  0.10132500E+00 MPA
 Rotational symmetry number:   3
 Moments of inertia (a.u.) and Rotational temperatures (K)
 with respect to principal axes:
                          1                   2                     3
 Moments --            3.046059817110       7.319904693279       4.273844876169
 Temperatures --      28.434706322992      11.832642632808      20.266017801614

 THERMAL ENERGY           AU                  EV                      J/MOL
 Translational:        0.003562667044       0.096945098863        9353.78100000
 Rotational:           0.003562667044       0.096945098863        9353.78100000
 E0(Vibrational)       0.021167479600       0.575996403007       55575.20985777
 Vibr. corr.:          0.000234617374       0.006384263326         615.98782957
 Total:                0.028527431062       0.776270864058       74898.75969933


 ENTROPY                  AU/K                EV/K                    J/(MOL*K)
 Translational:        0.000062455145       0.001699490893         163.97595972
 Rotational:           0.000020553116       0.000559278729          53.96219936
 Vibrational:          0.000000389129       0.000010588734           1.02165758
 Total:                0.000083397390       0.002269358356         218.95981680

 HEAT CAPACITY            mAU/K               mEV/K                   J/(MOL*K)
 Translational:        0.004750222725       0.129260131817          12.47170800
 Rotational:           0.004750222725       0.129260131817          12.47170800
 Vibrational:          0.001346833647       0.036649206741           3.53611124
 Total:                0.010847279098       0.295169470375          28.47952726


 *******************************************************************************

 THERMODYNAMIC FUNCTIONS TAKING INTO ACCOUNT MOLECULAR
         ROTATIONAL, TRANSLATIONAL AND VIBRATIONAL CONTRIBUTIONS

 AT (T =  750.00 K, P =   0.10132500E+00 MPA):

                          AU/CELL             EV/CELL                 KJ/MOL
 ET            :       0.007359951462       0.200274461051          19.32354984
 PV            :       0.002375111363       0.064630065908           6.23585400
 TS            :       0.062548042561       1.702018767060         164.21986260
 ET+PV-TS      :      -0.052812979736      -1.437114240100        -138.66045876
 EL+E0+ET+PV-TS:     -75.009099040929   -2041.101352491287     -196936.36177859

 OTHER THERMODYNAMIC FUNCTIONS:

                      mHARTREE/(CELL*K)     mEV/(CELL*K)              J/(MOL*K)
 ENTROPY       :       0.083397390082       2.269358356080         218.95981680
 HEAT CAPACITY :       0.010847279098       0.295169470375          28.47952726

 *******************************************************************************
 TTTTTTTTTTTTTTTTTTTTTTTTTTTTTT END         TELAPSE        5.09 TCPU        4.91
 EEEEEEEEEE TERMINATION  DATE 05 12 2017 TIME 19:24:23.5
Tue  5 Dec 19:24:23 GMT 2017
total 1536
-rw-r--r-- 1 andy users   2742 Dec  5 19:24 FORCES.DAT
-rw-r--r-- 1 andy users    216 Dec  5 19:24 fort.10
-rw-r--r-- 1 andy users    280 Dec  5 19:24 fort.11
-rw-r--r-- 1 andy users   5772 Dec  5 19:24 fort.12
-rw-r--r-- 1 andy users    400 Dec  5 19:24 fort.13
-rw-r--r-- 1 andy users    312 Dec  5 19:24 fort.19
-rw-r--r-- 1 andy users   8608 Dec  5 19:24 fort.20
-rw-r--r-- 1 andy users      0 Dec  5 19:24 fort.28
-rw-r--r-- 1 andy users      0 Dec  5 19:24 fort.29
-rw-r--r-- 1 andy users   1900 Dec  5 19:24 fort.33
-rw-r--r-- 1 andy users   1351 Dec  5 19:24 fort.34
-rw-r--r-- 1 andy users    408 Dec  5 19:24 fort.61
-rw-r--r-- 1 andy users    432 Dec  5 19:24 fort.62
-rw-r--r-- 1 andy users    312 Dec  5 19:24 fort.8
-rw-r--r-- 1 andy users   8608 Dec  5 19:24 fort.9
-rw-r--r-- 1 andy users   1696 Dec  5 19:24 fort.95
-rw-r--r-- 1 andy users  18880 Dec  5 19:24 fort.98
-rw-r--r-- 1 andy users 662961 Dec  5 19:24 FREQINFO.DAT
-rw-r--r-- 1 andy users   1722 Dec  5 19:24 HESSFREQ.DAT
-rw-r--r-- 1 andy users     85 Dec  5 19:24 HESSOPT.DAT
-rw-r--r-- 1 andy users      0 Dec  5 19:24 MULLIKEN.DAT
-rw-r--r-- 1 andy users   1351 Dec  5 19:24 opta001
-rw-r--r-- 1 andy users   1351 Dec  5 19:24 opta002
-rw-r--r-- 1 andy users   1351 Dec  5 19:24 opta003
-rw-r--r-- 1 andy users   1351 Dec  5 19:24 opta004
-rw-r--r-- 1 andy users   1351 Dec  5 19:24 opta005
-rw-r--r-- 1 andy users   1351 Dec  5 19:24 opta006
-rw-r--r-- 1 andy users 657670 Dec  5 19:24 OPTINFO.DAT
-rw-r--r-- 1 andy users 115143 Dec  5 19:24 SCFOUT.LOG
wave function binary file /local/andy/tmp/water_opt.f9
Tue  5 Dec 19:24:23 GMT 2017
file fort.98 saved as /local/andy/tmp/water_opt.f98
file SCFOUT.LOG saved as /local/andy/tmp/water_opt.SCFLOG
file fort.20 saved as /local/andy/tmp/water_opt.f20
file fort.33 saved as /local/andy/tmp/water_opt.xyz
geometry input file fort.34 saved as /local/andy/tmp/water_opt.gui
file optaxxx saved as /local/andy/tmp/water_opt.optstory/opta001 /local/andy/tmp/water_opt.optstory/opta002 /local/andy/tmp/water_opt.optstory/opta003 /local/andy/tmp/water_opt.optstory/opta004 /local/andy/tmp/water_opt.optstory/opta005 /local/andy/tmp/water_opt.optstory/opta006
file OPTINFO.DAT saved as /local/andy/tmp/water_opt.optinfo
file FREQINFO.DAT saved as /local/andy/tmp/water_opt.freqinfo
/local/tmp/andy/water_opt_18946 removed
